ITEM: TIMESTEP
3400000
ITEM: NUMBER OF ATOMS
1024
ITEM: BOX BOUNDS xy xz yz pp pp pp
-3.0162782406238264e-02 2.1659442782402774e+01 0.0000000000000000e+00
-3.0162782406238264e-02 2.1659442782402774e+01 0.0000000000000000e+00
-3.0162782406238264e-02 2.1659442782402774e+01 0.0000000000000000e+00
ITEM: ATOMS type id x y z vx vy vz 
1 743 0.246527 0.384398 5.0995 9.21477 -6.02164 -7.10197 
1 20 0.00655713 2.63478 5.39612 4.96779 -5.04472 3.97925 
1 11 7.07873 4.29566 1.26034 12.4548 3.00039 3.38437 
1 4 5.73047 2.93314 2.64453 6.04402 -2.10342 1.56296 
1 518 6.5767 6.89755 4.1631 -6.55086 -2.68644 1.46608 
1 54 5.36511 5.33599 3.04999 -10.1193 4.67572 -13.6294 
1 34 2.97017 5.69589 2.53829 3.16326 -9.48545 1.67662 
1 23 5.6543 2.91969 0.115271 -10.3887 -4.93684 -5.60108 
1 276 1.54073 1.40095 1.51553 -11.5115 9.44454 -6.84079 
1 9 4.49162 1.63584 3.87438 4.07874 -5.17147 -6.21414 
1 52 4.0065 6.65115 4.35329 4.20754 2.10197 0.791035 
1 164 4.00545 6.87848 1.24078 -7.57373 1.32414 -4.45816 
1 24 7.00132 3.96477 4.21113 -9.27076 6.08583 -0.841741 
1 142 4.09109 4.31024 1.22513 -4.19148 -4.77849 -2.87587 
1 26 1.27461 4.04436 3.86197 4.71798 -0.485969 5.79258 
1 22 4.04324 1.43855 0.936202 3.02216 -8.65341 -9.77733 
1 28 1.47337 1.74129 3.89285 3.96202 8.7651 5.34828 
1 15 1.42908 4.11225 1.13856 -10.9904 3.53541 -4.26295 
1 8 3.04803 2.67122 2.38863 1.81637 9.67965 -0.867388 
1 21 3.15533 0.230812 2.59027 5.57378 7.10158 -4.10646 
1 53 3.93404 4.07365 4.17392 -5.89046 6.23502 3.41174 
1 405 6.8579 1.59397 1.13108 -5.39927 2.53145 2.75109 
1 33 1.18487 6.76567 4.19109 10.3537 5.0547 -6.37038 
1 29 6.67946 1.43215 3.67363 -4.78354 -6.21172 0.170401 
1 39 2.86968 0.176867 4.97925 5.51902 -3.88057 5.92304 
1 729 0.259528 5.71964 2.44364 -0.355838 -1.82179 7.23494 
1 395 6.6261 6.62027 1.62555 -10.8058 4.07661 1.45774 
1 41 5.65771 0.155111 5.29145 0.696545 2.25845 -1.94381 
1 47 5.74116 2.64509 5.17098 -7.17278 7.73712 9.77655 
1 709 0.0288629 2.54947 0.274279 9.47082 -7.12219 -0.862029 
1 14 2.50778 5.83872 0.239113 -4.48427 5.64249 -0.259872 
1 36 6.86613 6.54781 7.14938 8.65218 9.24393 -5.54469 
1 38 0.922708 1.05461 9.37143 -4.53743 13.1962 13.1088 
1 652 5.66353 0.00204279 7.88817 -10.3831 -8.85081 -9.46879 
1 40 4.34702 1.20854 6.74583 10.7778 4.55573 -1.25951 
1 62 1.33193 3.88756 8.9596 5.03289 -0.0877681 -7.97977 
1 82 3.64329 6.8731 6.58366 -1.43722 7.46491 -13.0123 
1 63 2.852 2.12762 8.10622 1.80372 -5.31581 3.59165 
1 44 2.64403 5.31647 7.92164 0.924907 -1.99823 1.78154 
1 103 -0.000629328 3.06757 10.7328 9.05542 -5.71106 -2.92146 
1 66 6.56479 4.00122 8.83692 1.29251 -3.18363 -3.6644 
1 37 1.1758 1.2356 7.01222 6.19902 8.72563 1.18706 
1 68 1.12683 6.58044 9.41009 1.03027 0.701166 4.27086 
1 43 0.955689 4.02306 6.71972 1.25686 -4.2721 8.67258 
1 48 6.74907 4.07579 7.00122 -13.2408 -3.11225 -3.42322 
1 71 3.79654 6.9165 9.36645 -0.90532 3.03655 -7.78528 
1 83 5.6587 5.79155 10.4944 -10.7729 9.72213 2.4902 
1 65 5.1096 2.62001 8.16917 -4.16931 8.59954 -1.04664 
1 58 4.3271 1.02821 9.58931 8.04809 0.459469 -5.77924 
1 60 6.891 1.44821 9.19341 6.16623 7.54929 -3.18358 
1 42 4.33407 4.11407 6.62864 -7.29846 -5.42057 3.87939 
1 544 1.22239 6.45281 6.77639 -12.8596 -3.72078 4.78966 
1 105 4.09813 4.30359 9.65008 -19.3752 3.13177 -9.7711 
1 72 6.99586 6.79375 9.24653 8.66764 8.27645 -1.18438 
1 410 5.22407 5.70719 8.36144 -4.35968 1.97212 9.87056 
1 430 7.06596 1.45896 6.61515 -5.83817 6.21676 -8.85176 
1 78 5.20059 2.85909 10.6866 -8.43264 -6.52 3.11711 
1 81 2.66365 2.29288 10.0905 18.3758 -8.42756 7.19295 
1 59 5.78115 0.338896 10.7381 -1.7914 -10.0006 -10.167 
1 86 0.193932 5.38574 10.4606 2.52982 -11.6194 -3.84742 
1 45 2.56168 2.63223 5.64079 -0.673182 5.72691 9.91527 
1 46 5.82257 5.53959 5.70534 3.2909 13.462 7.76778 
1 51 2.51383 5.02891 5.65394 -3.00521 -3.82073 -1.43786 
1 77 3.67011 1.54114 14.7869 -5.36453 0.795557 -2.00829 
1 110 1.28818 1.76804 14.7514 -4.56213 -1.51333 3.2816 
1 107 3.78029 4.19077 14.7514 3.19658 2.28253 -7.511 
1 779 0.295657 5.55742 12.878 7.01962 -11.6092 -1.51999 
1 70 2.11354 4.18205 10.9118 2.67305 0.603161 10.3041 
1 87 5.41701 5.4268 13.6658 4.79432 -0.46269 -7.14962 
1 75 1.56045 1.76265 12.0417 -5.14712 -4.89989 7.80534 
1 56 3.81909 1.13621 11.9914 -8.01045 1.14694 0.771093 
1 101 5.0199 2.53235 13.2606 -7.97837 -0.14557 -3.88417 
1 64 4.35085 4.33714 12.2139 3.34027 9.69246 -3.2925 
1 98 1.5408 4.30718 14.5702 1.8698 -8.8579 -1.79322 
1 794 2.85575 5.7738 13.2098 -5.93779 7.82339 7.74698 
1 470 6.87798 6.53908 14.851 11.4235 -0.325928 -0.10269 
1 80 1.32771 6.82863 14.6306 6.50177 9.4398 -10.1707 
1 112 6.48797 1.35138 14.9568 -6.7926 -10.0034 3.25551 
1 76 6.56509 6.7598 11.9595 13.4452 1.22932 14.348 
1 99 2.79138 3.06014 13.2408 -4.76444 -1.12834 -5.32577 
1 445 6.86395 1.8468 11.9616 2.37255 8.175 1.37058 
1 95 5.60175 0.311474 13.3484 8.29773 -2.43813 -2.6052 
1 97 0.183618 3.22108 13.3832 5.45627 -8.3701 -3.55964 
1 106 3.94756 6.59656 15.1969 -5.13227 -2.18859 -8.53976 
1 115 0.260986 3.14972 15.8257 7.55579 -5.71737 -3.87754 
1 480 6.48764 4.13038 14.8763 1.03114 -9.26274 -10.1024 
1 84 6.55255 4.10071 12.2066 8.3611 -7.50037 -0.190441 
1 93 2.29835 0.268213 13.2857 4.47113 2.82717 4.36463 
1 88 4.07789 6.84752 11.6671 4.68901 6.71582 -2.86358 
1 92 0.025583 0.527433 13.342 -5.88965 3.22715 -1.10054 
1 118 5.21289 2.89663 16.1146 3.61733 -6.02589 12.2098 
1 123 2.40867 5.3632 16.1365 0.345736 5.4301 -6.91337 
1 180 2.27605 6.10787 10.9447 8.50342 0.664325 -0.207251 
1 122 2.7782 5.4015 18.9201 -2.6554 -6.66282 -2.03684 
1 5 3.76161 1.48829 20.4552 -4.29149 4.47919 -2.69906 
1 391 6.76611 4.23243 20.264 0.385783 -1.85872 0.564651 
1 799 1.13672 1.48746 17.5526 -4.20297 -8.11946 4.11083 
1 119 6.4403 3.98085 17.4199 -2.20704 -12.3982 -3.89256 
1 813 -0.0285359 -0.00203875 18.9256 -7.11353 8.62604 2.20939 
1 390 6.47466 1.74553 20.0343 13.6708 -0.793204 -3.55685 
1 137 6.18705 1.52649 17.4273 -0.138735 -5.93125 0.410923 
1 121 0.868318 4.06823 17.6863 13.9465 8.73133 7.95345 
1 141 4.14847 6.9696 20.3647 1.10395 2.34082 8.61878 
1 250 1.23865 6.74543 19.6905 6.23171 3.51728 -2.49768 
1 108 5.23221 5.62082 16.4614 -16.2265 7.73402 -6.60351 
1 143 6.2563 6.9603 17.6568 8.14399 4.18998 -4.8287 
1 17 4.02257 4.35832 20.6044 4.29817 -4.98619 7.8031 
1 130 4.64293 0.085725 18.92 -4.23757 -0.520185 -4.0291 
1 136 5.19832 5.21626 18.7599 -2.49847 -6.33363 5.43594 
1 135 3.59831 1.22982 17.4108 -4.25046 -8.64529 -6.99619 
1 13 1.0842 4.78061 20.397 -1.23061 13.3725 -1.34633 
1 134 2.44302 3.01071 19.1295 2.82724 -4.57096 10.2607 
1 128 1.55753 0.901541 20.6103 14.7004 13.5555 10.8526 
1 138 4.60285 2.65328 18.7783 3.61484 -0.953427 0.218988 
1 109 3.83417 4.15608 17.3026 -1.33861 3.77681 0.0412169 
1 102 6.54323 7.11269 20.2833 -12.0478 2.38273 -1.6297 
1 235 1.22205 6.83029 17.2483 -17.3908 3.84752 -11.5885 
1 804 0.536638 2.41285 19.3212 -6.72577 2.78925 -8.70729 
1 124 3.96092 7.0283 17.5525 0.940035 2.45053 -0.0650845 
1 10 5.46074 5.64358 21.4174 3.73317 -2.89034 -0.438022 
1 3 2.24994 3.09853 21.2506 2.71723 -3.23505 -11.7699 
1 617 5.47525 0.400869 21.5214 -5.92828 1.39547 -5.8172 
1 116 2.49654 2.8374 16.489 -4.3953 -7.15894 -7.62368 
1 177 2.8779 10.9791 5.29773 9.42214 10.6805 6.18634 
1 146 1.39264 9.37449 1.27469 -7.69467 -7.44339 7.47045 
1 506 6.90664 9.36773 2.07115 0.643355 9.17565 -4.60816 
1 148 5.53894 10.8533 2.72057 3.34004 4.73518 4.2571 
1 174 5.54639 13.5507 2.41459 -8.28432 -2.35496 -0.590794 
1 852 0.310212 8.16326 2.85766 -0.147177 2.47971 -0.0215751 
1 162 2.88199 7.93762 2.9211 -1.82191 -9.48119 -1.18039 
1 268 1.56447 11.9669 1.45172 -5.21982 12.1225 1.5479 
1 170 6.68214 12.3029 4.21304 -2.34616 1.90999 -1.94579 
1 154 4.16547 11.9691 1.11381 4.81519 -0.204893 -3.67902 
1 168 2.88233 10.805 2.81663 -8.35968 0.499701 13.4367 
1 27 0.879721 7.2159 0.985897 -1.53821 9.18991 9.07365 
1 167 2.83593 13.2682 2.62399 9.38457 11.0455 3.15464 
1 169 4.43266 12.7244 4.11501 1.86292 0.977063 -3.41725 
1 147 3.70991 9.21325 1.16363 -2.11295 1.09007 -6.28433 
1 949 1.07388 11.8099 3.79419 5.52708 -9.3158 2.24356 
1 156 6.60076 12.0029 1.25892 -4.981 -3.78507 0.36428 
1 32 1.29815 9.48569 4.17388 -5.07604 7.15775 -8.31987 
1 16 5.30953 8.00095 3.14412 5.30302 -2.27248 7.59748 
1 185 4.25437 9.56709 4.19097 1.77521 1.79379 5.42681 
1 165 6.92586 9.24238 4.14435 0.574689 0.908934 2.37752 
1 155 5.50138 10.3422 0.0554536 5.515 -4.15325 -6.19253 
1 152 0.354184 13.5659 2.83562 -5.59997 -4.27662 -0.7405 
1 173 4.00584 14.3944 1.04222 3.12368 5.55415 8.53299 
1 186 5.6923 10.8252 5.31785 -2.3609 -13.6671 -7.51802 
1 1014 0.0364423 13.3371 0.111764 -5.99562 -4.29197 0.200077 
1 149 5.6989 8.17927 0.380681 -2.93975 2.98794 -1.49364 
1 166 0.085317 10.7834 2.48915 -2.17301 3.66149 5.95758 
1 175 1.38578 9.79409 6.93815 7.58557 -7.2255 -2.96395 
1 209 6.88456 9.1604 8.99474 -7.47405 5.47745 1.77044 
1 89 1.2239 11.8048 8.85379 6.2879 8.94294 -3.06678 
1 178 3.81575 9.41864 6.54999 -4.31034 5.55424 1.81314 
1 194 5.22397 7.91821 8.14902 1.3872 -8.66048 -7.0099 
1 193 4.20579 9.30969 9.11491 -1.41589 0.473661 -9.61561 
1 189 5.3845 10.4649 7.83161 5.97516 16.0859 4.4992 
1 182 1.09804 12.1313 6.45723 -14.7568 -1.30602 8.52025 
1 203 2.92295 10.8974 8.18341 1.72123 0.309932 -6.79425 
1 184 2.782 13.2322 8.10087 -2.72061 -6.89419 0.557375 
1 200 4.49654 11.7844 9.26898 0.774309 3.89719 0.332451 
1 204 5.2531 13.7903 8.05463 1.54079 -7.64475 -2.97238 
1 50 2.60261 8.00128 8.12101 -5.78209 2.87548 4.21617 
1 171 5.48309 13.5227 5.58016 -12.1471 -4.12404 -5.95257 
1 199 5.23057 13.3498 10.4428 2.15463 0.49622 -2.37282 
1 69 1.01407 9.12335 9.23309 -2.76407 -4.16578 -5.17437 
1 218 2.50849 13.2581 10.3385 1.70988 1.0148 4.45519 
1 183 4.1387 12.2019 6.9939 -3.66421 -0.324034 3.77993 
1 536 7.14369 9.3906 6.40306 1.99937 2.71241 -6.78564 
1 201 6.96135 11.9906 9.05124 -4.23036 8.88796 -0.720562 
1 207 2.59257 8.48922 10.5483 -1.8462 -0.558349 -2.58575 
1 523 6.64896 12.2405 7.00977 -2.99831 18.6322 -1.45559 
1 213 2.68705 10.9221 10.4043 -8.05117 2.01978 -6.82818 
1 90 5.36701 8.28003 10.4079 -9.37069 -2.47414 -8.98621 
1 215 5.78704 10.8107 10.6882 -1.9506 -13.7369 15.3083 
1 163 2.1151 8.10401 5.76958 14.212 8.3842 5.76867 
1 192 0.366067 13.8659 8.20648 2.70963 2.61759 -0.99401 
1 197 0.292829 13.1205 10.4613 16.0019 -10.5502 -5.89636 
1 179 5.53449 8.19881 5.88738 -5.04357 8.32309 9.75713 
1 188 2.98448 13.1547 5.53097 3.66879 9.11031 10.2854 
1 216 6.61511 12.1765 12.1376 -0.858244 5.21342 -13.5979 
1 248 2.45987 13.6798 15.9757 5.28896 -6.15062 7.42242 
1 210 6.50987 9.54502 12.1581 8.72676 -7.96037 3.15122 
1 208 4.17531 9.3978 12.1278 -3.17315 -5.13453 10.4387 
1 223 3.00188 10.7152 13.7824 6.71009 -8.39197 -1.82395 
1 222 1.46821 9.14004 14.7598 1.45025 -17.7953 -1.5403 
1 233 1.59676 12.3072 14.577 -7.89747 -2.70544 9.71417 
1 227 0.323697 10.8396 15.9581 -1.2364 4.23226 0.740264 
1 230 5.18768 10.8503 13.4939 3.86426 5.76577 6.45779 
1 214 3.99992 12.101 11.755 -1.9286 -6.67161 3.11317 
1 206 3.01535 8.11003 13.501 1.60103 9.80704 3.77189 
1 221 0.180541 10.9286 13.2868 2.69564 3.12638 9.62664 
1 239 3.94346 9.27302 15.0706 -3.69486 -5.55682 0.389957 
1 191 1.93187 9.67274 12.2913 10.1308 -1.13139 4.50674 
1 229 4.06664 12.209 15.1215 -3.49451 -3.24315 7.85848 
1 228 1.77235 12.05 12.0547 -6.92252 -2.84042 -0.615554 
1 231 6.52074 12.1312 14.7137 -7.12917 2.06428 -3.36493 
1 234 5.27245 13.529 13.4891 7.57243 1.36896 -1.80982 
1 325 3.04574 13.4757 13.2432 0.493984 -8.48557 1.7145 
1 224 5.43919 8.14988 13.5465 4.30896 -0.0577663 -2.81989 
1 225 7.14929 9.60532 14.4326 5.00839 -8.5608 -0.577517 
1 205 1.48933 7.31721 12.3145 -3.68644 -1.07105 -4.12856 
1 220 0.0390676 8.64184 13.1001 -1.0534 -0.150336 -7.62697 
1 882 0.23067 13.2808 13.4711 -5.51504 7.92591 6.63951 
1 876 0.265645 10.9208 10.9322 -9.92712 -10.2408 -4.20503 
1 247 -0.0069327 13.3754 16.2316 2.5651 -3.32372 4.37898 
1 254 5.91877 8.09863 15.8023 -9.64237 5.49903 4.30227 
1 246 5.27419 10.9012 16.025 10.0966 -1.43389 -2.31329 
1 126 4.35689 9.45901 17.347 1.09354 8.75255 -1.58654 
1 236 0.923823 9.02813 17.5257 2.95382 5.2541 -4.18758 
1 252 2.93169 8.50088 18.9476 3.12452 -9.4938 -1.56774 
1 238 2.53486 10.5587 18.5081 14.4513 7.01714 15.3498 
1 258 1.42199 11.9654 20.0559 -0.70575 -9.74798 -6.15893 
1 253 4.11942 9.66434 20.3902 12.2213 1.97515 -0.568029 
1 505 5.30683 8.48771 19.0839 6.39515 -4.72493 2.27118 
1 242 1.49592 12.4259 17.549 1.06757 10.3734 -6.62339 
1 263 2.52112 13.6616 19.0596 -5.57473 -5.26715 -4.14929 
1 244 3.80108 12.197 17.8623 11.4517 -4.5683 11.1123 
1 240 5.37227 10.6667 18.9721 13.6684 8.52071 -5.52836 
1 251 0.98393 9.34881 20.1736 12.2946 -5.01125 5.02979 
1 255 6.74865 9.50485 20.1447 -2.66214 -4.82513 5.35206 
1 266 5.48944 13.4093 21.5722 7.61297 -1.60827 20.3936 
1 259 3.92438 12.2478 20.1742 -1.78426 -4.95578 9.94072 
1 361 5.31017 13.9428 18.6463 5.91738 -5.0715 0.793628 
1 262 0.201361 13.5485 18.869 -9.32855 -6.30365 -2.11211 
1 257 2.19775 13.6419 21.3698 2.34687 4.1328 8.08194 
1 261 6.5533 11.914 20.2004 5.55202 -0.396946 -0.239839 
1 144 6.66637 9.5171 17.4657 11.4048 0.532113 -1.29805 
1 264 6.46787 12.2626 17.2549 3.70943 -0.441261 -3.58115 
1 140 2.45338 8.36428 21.1575 -5.40569 1.31247 -6.13803 
1 153 2.5803 10.7602 21.5648 -5.05654 8.81993 -2.81229 
1 145 0.0292307 8.04646 21.045 3.71663 -5.52622 -0.669032 
1 243 2.54406 10.517 16.3437 8.02121 -9.25855 -2.12447 
1 249 5.26302 13.5246 16.3687 2.30391 9.17588 3.34169 
1 237 2.53382 8.34296 16.2546 -10.9448 -7.90642 8.01851 
1 271 4.18552 20.4237 1.32243 -12.4395 -0.956797 -6.99299 
1 281 4.05564 14.9239 4.29227 3.36855 -4.80152 8.71108 
1 280 1.82812 14.5574 4.01845 9.56064 -10.1787 5.33806 
1 283 0.197489 18.8239 5.10434 -4.63607 -6.52293 -2.5343 
1 172 1.67321 17.1632 3.82632 -8.4734 -5.91913 14.9463 
1 278 3.0316 18.6812 2.39344 6.36761 -6.76378 6.96362 
1 158 5.42086 15.9727 2.92574 2.06776 3.31181 -6.37995 
1 291 1.35954 17.1759 1.25907 6.68109 2.92117 -2.21268 
1 275 1.16869 20.1492 1.6967 -5.71873 -2.25912 -5.44323 
1 293 5.48837 18.9352 2.66513 11.3924 -10.9117 -5.47868 
1 294 6.81031 20.3617 3.5986 1.84243 7.02426 2.36327 
1 290 1.16698 20.4287 4.01011 12.2799 -1.9654 -1.38162 
1 285 2.89478 16.3012 2.57311 -5.03964 -0.875468 -8.47767 
1 287 4.23021 17.3967 1.25143 -3.88907 1.11644 2.06616 
1 286 4.09098 17.3864 4.14591 13.748 -1.93203 8.15059 
1 267 6.67936 14.6731 1.06988 -1.08955 8.12994 -0.564173 
1 292 5.68685 21.5918 2.42591 -7.19988 -0.416518 -8.97649 
1 273 6.33598 17.4287 1.13822 -8.25127 -6.23564 -10.133 
1 288 6.67937 17.6156 3.80439 12.847 5.68284 7.32325 
1 284 4.32205 20.4989 3.9177 5.22224 6.72689 -18.3051 
1 132 6.75879 20.3369 0.817385 4.51753 2.04911 -4.59158 
1 277 2.51409 21.5919 0.420763 -12.1297 0.182251 0.693069 
1 270 1.82809 14.7697 1.36632 -2.23311 5.99997 9.83774 
1 282 6.844 14.9131 3.90359 2.10017 -3.42036 -12.1455 
1 927 0.423174 15.8418 2.44332 4.41835 4.34776 -6.81737 
1 298 0.376248 16.0945 5.0248 0.644942 0.170392 5.10105 
1 289 0.195978 18.6807 2.8493 -9.3194 -3.30745 -0.751567 
1 306 2.47725 19.1691 5.17679 0.851599 -10.192 -5.3601 
1 311 3.79534 14.8126 9.59811 -5.46666 13.3494 3.6154 
1 310 1.27766 14.9812 9.61197 6.0179 4.90216 9.1601 
1 320 0.616736 20.5676 9.56964 -11.908 8.38302 4.51326 
1 323 6.76642 17.7427 9.36018 7.41035 -5.47243 -4.4993 
1 299 1.21989 17.6064 6.40363 8.34952 -4.05002 6.95416 
1 303 5.29511 16.5057 5.89494 1.78374 -11.7393 -4.60821 
1 301 5.82508 19.3885 7.90901 14.0624 -14.7575 8.03214 
1 322 4.13705 20.5607 9.28811 4.58982 -6.12475 2.89302 
1 317 4.89528 16.2301 8.52001 -3.50694 -9.83833 -3.55286 
1 309 6.94412 20.5181 6.57073 3.02534 -1.35491 8.44778 
1 305 2.45931 19.3419 7.96511 -6.44511 1.9019 4.45574 
1 219 6.43213 15.0718 9.75348 7.58926 3.44612 9.17023 
1 307 4.46574 20.2507 6.30192 -9.34438 -1.05305 1.53994 
1 297 6.79668 15.0319 7.16903 5.35967 -7.63317 3.39195 
1 324 5.17933 19.0221 10.3902 -11.5671 4.01257 -1.25723 
1 336 1.33684 17.6581 9.36055 -5.22124 6.58385 0.171327 
1 296 3.98321 14.9304 6.78468 -8.30774 -6.1688 2.3487 
1 295 1.51914 14.4802 6.41544 -2.25644 0.959862 -11.3591 
1 737 0.882578 20.3101 6.81169 -0.964636 -2.94153 -5.42472 
1 302 3.92981 18.1197 6.56007 0.5456 0.919279 -4.87807 
1 315 2.48599 16.0945 8.05284 -0.919042 -11.1424 0.512328 
1 338 3.90574 18.2126 8.81503 3.01729 -3.8125 9.06764 
1 959 2.28763 21.5549 10.7614 8.009 -3.79392 2.81828 
1 330 2.85542 16.6696 10.6786 -0.43615 -2.42091 8.09244 
1 321 2.25153 19.5472 10.4169 -4.84095 0.721995 -1.40031 
1 300 2.63878 16.0125 5.42476 -0.508509 -5.75207 -18.3856 
1 452 6.49722 20.6174 9.5504 -16.0074 3.32826 7.82873 
1 635 6.91655 17.3704 6.86728 -15.0527 7.20091 -3.51306 
1 314 0.222438 16.2114 8.19094 7.46525 1.96911 -6.59357 
1 57 2.47539 21.509 8.01037 -5.64483 1.94257 -0.0105069 
1 316 5.21749 16.3304 10.5715 -7.42126 -6.4058 -6.53997 
1 308 5.61885 18.7978 5.53523 12.0161 -7.72945 -2.67663 
1 334 0.788378 20.196 11.7255 6.82539 8.78693 -9.76093 
1 329 1.69445 17.9205 11.9818 -9.15499 -13.0163 0.491127 
1 332 6.61312 14.7933 12.0577 -2.08372 3.20371 -10.4863 
1 212 1.68579 14.5882 11.9602 0.275051 -8.56975 7.4853 
1 96 5.11157 21.5274 15.8583 -3.07763 -0.9479 1.153 
1 347 5.13251 16.1326 13.2154 -2.22317 3.5479 4.3486 
1 331 3.80575 18.1739 11.8296 8.37535 -3.59998 1.4621 
1 341 3.66184 15.0446 14.5493 6.0871 -6.2911 13.0865 
1 326 4.28473 14.5451 12.0089 -8.07241 16.1751 5.25791 
1 352 4.03131 20.6082 14.1993 -2.31811 1.55067 -2.91526 
1 335 2.50366 19.0193 13.5462 5.2972 -10.9231 4.93964 
1 354 6.69512 20.4035 14.8002 -4.52873 -4.30919 -9.44872 
1 337 4.00653 20.6724 11.8387 -5.62111 -6.20174 -7.44574 
1 351 4.1523 17.8934 14.7301 -0.2999 -4.90234 3.40772 
1 348 6.22838 17.5801 15.0183 -0.0343114 5.55244 -10.9663 
1 111 2.51718 21.6021 16.1148 8.31699 -2.26495 10.8755 
1 350 1.15458 20.5786 14.5275 11.6754 -5.69375 2.90943 
1 328 0.0690561 16.1702 10.8564 -0.671911 -2.64486 -5.87607 
1 353 5.38294 19.2054 13.1028 -7.34772 6.6207 -4.57093 
1 344 1.66616 17.2916 14.3148 -4.7008 -9.70493 6.0882 
1 345 2.90441 16.3868 13.1473 -14.3029 -4.06254 4.55516 
1 362 6.27454 14.8043 14.9702 -3.26486 8.55796 0.808166 
1 339 6.82162 20.1955 11.6709 2.08506 1.4327 -5.46816 
1 318 6.39287 17.4895 11.997 -0.886675 -3.77575 9.16226 
1 358 0.257571 16.343 15.9875 4.78066 -11.9076 -10.9811 
1 360 1.20203 14.9055 14.589 -7.65883 -3.96142 6.88245 
1 368 2.46886 18.734 15.8963 7.91298 4.33217 -2.70967 
1 113 5.38073 19.2528 16.014 0.948101 8.23812 2.34734 
1 349 0.0860197 18.8071 13.341 0.645508 5.49571 7.9954 
1 980 0.203516 16.3501 13.1712 11.3135 8.45904 -11.6132 
1 366 2.53022 16.3819 15.9053 -11.1825 -1.92791 -4.74367 
1 380 1.15699 17.6974 20.2329 7.0006 -8.28688 -4.74329 
1 127 0.871501 20.3676 20.4945 -5.18814 -8.58776 13.1279 
1 1001 0.00283056 16.3867 18.8367 -6.42289 1.7701 -8.4961 
1 159 3.94405 14.7788 20.0881 -2.70684 9.77091 0.658607 
1 359 1.01525 17.8264 17.4989 2.45987 -1.99806 4.61589 
1 117 6.23593 20.8129 17.6508 -4.59732 3.55269 18.4051 
1 356 3.86225 14.8587 17.6013 4.93369 -3.14682 -12.4142 
1 372 5.23658 16.4805 18.6361 -3.11557 0.542326 -9.04351 
1 346 4.84362 16.4825 16.3078 6.84296 0.575373 -6.02167 
1 383 5.3316 19.051 18.8191 -2.21018 0.0187984 -4.83881 
1 365 0.874066 20.1878 16.9851 -0.869864 9.40643 -1.78823 
1 382 3.70133 20.2488 20.3072 4.56903 -5.89948 5.68944 
1 367 3.77698 20.1276 17.4108 1.8765 -6.19152 -1.86268 
1 381 3.75205 17.785 17.4283 -0.600045 -3.25466 -7.09155 
1 377 3.73701 17.99 20.1048 -6.99932 -1.67996 -3.19802 
1 355 1.37477 15.1715 17.3884 1.4012 -10.9821 -2.96718 
1 376 5.35162 19.1657 21.3315 6.46244 -3.17429 -6.40835 
1 370 1.02966 15.1136 20.2293 0.31729 7.03202 -4.66903 
1 378 6.36438 17.4204 20.504 0.843259 5.35617 0.695712 
1 374 2.11746 19.29 18.6338 2.10841 8.12977 1.48119 
1 375 2.73702 16.3276 18.7842 -0.937298 -6.34014 2.8053 
1 384 6.65753 20.5479 20.2955 -2.13122 -9.09389 4.79313 
1 363 6.65569 17.6341 17.3685 3.86979 -1.38976 -10.1327 
1 693 6.69845 14.7772 20.2135 7.3588 8.60141 -3.283 
1 272 4.80077 16.0614 21.442 -8.8193 -3.81248 -0.233291 
1 683 6.72452 14.9538 17.3361 7.84406 11.1304 -9.42151 
1 379 2.55366 16.2814 21.4617 -9.18771 -13.1169 -5.10557 
1 129 2.30229 21.4418 18.7508 1.07878 -6.56276 4.61732 
1 269 2.39276 19.3556 21.6232 -4.78546 15.3698 2.08983 
1 404 13.3534 0.00362644 2.55261 1.44642 9.2273 0.54231 
1 597 8.37522 5.43854 2.95805 -2.22306 3.84289 5.24753 
1 424 10.8539 3.1501 2.73032 -2.11603 -1.4387 2.16269 
1 414 11.9397 6.8021 1.09194 0.933711 -11.4222 -4.52003 
1 412 10.9592 5.23947 2.91973 -1.84627 -1.13611 8.19565 
1 385 9.95818 1.4726 0.916328 3.10614 -3.11492 7.72211 
1 403 10.8648 -0.00056054 2.35027 -3.16776 7.66773 -8.52649 
1 18 9.40931 6.99578 1.1433 -2.69906 1.79117 -3.24425 
1 393 12.5125 4.06884 1.32118 3.08572 -1.23335 -1.49338 
1 6 8.31028 2.857 2.68006 -4.18224 4.88268 1.90667 
1 408 12.4031 3.97515 4.33801 -1.7674 1.02092 3.69941 
1 710 13.3322 5.41768 2.76364 6.60368 2.84782 9.81913 
1 407 9.41415 4.28121 1.57207 0.748898 2.17026 -3.88311 
1 409 13.6074 2.76701 2.80913 -11.051 0.963738 -10.5847 
1 417 12.0416 1.50482 3.92137 -10.3537 3.34882 1.05432 
1 420 9.61776 4.06559 4.20169 -11.5701 -1.44284 2.57232 
1 401 9.54094 1.4804 3.79516 0.0620163 -7.09816 -0.75764 
1 411 9.81104 6.66411 4.3146 -0.00839639 -12.7941 -4.9356 
1 386 12.1497 1.39827 0.962367 0.420729 -4.90319 3.67255 
1 413 12.2738 6.80004 4.12941 7.97824 -7.46559 -15.0114 
1 400 8.29761 0.0271516 2.38885 7.81384 2.08715 -10.039 
1 30 8.11594 0.263783 4.79883 15.2615 -11.9345 -3.40691 
1 423 10.8672 2.64937 5.15663 -7.21891 -6.88723 2.54811 
1 427 8.22317 2.74893 5.1604 -1.57527 3.08809 0.0944159 
1 425 8.50329 5.45395 5.29702 3.31589 -14.45 5.66347 
1 131 8.30319 0.265964 0.09613 -3.2618 4.06321 7.31692 
1 402 14.0746 0.060467 -0.00246688 -8.26901 -10.5335 6.44682 
1 440 8.39452 5.10275 7.82595 1.21478 -12.8369 -12.5805 
1 416 9.46852 1.47524 6.69193 5.06992 0.345093 -8.92724 
1 406 11.2728 5.07357 5.60348 -9.34301 4.76131 2.85594 
1 418 12.1821 1.64041 6.5732 -1.14496 -3.29173 -6.72001 
1 434 13.1492 0.19529 8.06435 4.118 15.2203 -0.0795032 
1 457 10.1819 4.20973 9.54633 12.3692 4.40479 -0.152617 
1 741 13.5619 5.20141 5.90741 -3.21409 3.2394 8.10658 
1 443 13.7914 5.55677 8.30709 -0.695814 0.192101 -19.4375 
1 546 11.5105 5.59863 8.18428 -4.34442 0.369932 -6.85224 
1 435 8.31027 2.82448 8.32498 -7.29765 19.6178 2.99463 
1 438 12.645 3.92571 9.57739 -4.58123 1.1865 -8.8781 
1 441 9.61145 6.71271 9.46967 10.418 2.02865 -19.2818 
1 437 9.43439 1.375 9.54296 0.85889 0.991549 8.04494 
1 422 11.9882 0.83696 9.91931 -12.4222 8.91001 1.25889 
1 755 12.3475 3.99694 6.91206 -2.70678 -2.21483 -1.54198 
1 431 10.6581 0.0577728 7.96185 -15.2072 9.12454 5.24884 
1 429 11.3177 2.82031 8.09871 -2.28833 1.20804 1.47002 
1 442 9.921 3.96999 6.75057 3.82383 -5.48017 9.77476 
1 439 13.5233 2.4462 8.46205 -3.55495 1.93576 5.19064 
1 426 9.93826 6.77151 7.08767 -3.76233 1.544 7.74452 
1 553 12.6884 6.82949 9.87933 -3.59623 -0.81602 -0.682031 
1 428 12.6724 7.05865 6.56721 2.04657 1.16536 2.83314 
1 421 8.2995 2.81981 10.5433 15.0078 -2.05777 -6.64379 
1 455 8.24049 5.56023 10.6503 3.55646 -10.0117 1.60824 
1 460 8.39183 0.116466 10.7187 -1.49684 -6.56232 -4.7426 
1 740 13.7005 2.1888 5.41358 1.33178 4.24282 -3.21838 
1 629 10.8369 0.228639 5.42687 9.01034 4.33881 -4.82407 
1 466 7.93152 5.22894 13.5578 -10.2152 4.50087 -0.353448 
1 447 10.521 -0.0048238 11.2714 3.46983 5.9696 5.54587 
1 472 9.39566 6.43073 14.7302 -7.6138 -0.306025 -10.5339 
1 486 9.26639 3.84179 14.7871 0.0666442 5.1583 10.0606 
1 485 11.136 5.36145 13.4062 -12.5531 -0.714721 -5.88795 
1 465 7.8538 2.68824 13.6207 -26.6775 11.1672 -18.9638 
1 451 9.1737 4.23096 12.0536 -1.18562 -0.710918 -0.932767 
1 474 13.5015 5.71054 13.253 -5.54101 3.08488 -5.81491 
1 453 12.5921 4.09697 12.2681 -8.23973 1.91091 11.3947 
1 468 11.7857 1.47831 12.425 6.98393 0.960018 -16.7694 
1 463 12.0786 1.34925 14.7803 -6.61497 -10.1723 9.01894 
1 459 13.7485 5.31185 11.013 5.43743 -4.91568 -14.8582 
1 450 9.3827 1.52075 12.3284 -4.86212 5.98778 -6.82571 
1 690 10.9217 3.23868 13.7526 -6.77262 16.2052 0.846742 
1 467 12.8028 4.2236 14.5754 -3.41992 5.65543 6.35637 
1 484 13.8549 2.37921 15.8488 -6.21771 -2.73191 -4.99245 
1 489 13.9684 5.89448 15.7208 0.68822 5.34182 5.89563 
1 446 9.71886 1.63037 15.04 4.72582 12.9127 5.99413 
1 487 13.694 2.28857 13.3067 -8.47612 -14.6652 5.702 
1 436 11.1393 5.42304 11.1822 -12.4341 3.76998 2.43961 
1 448 10.6462 2.56887 10.844 -14.0919 -3.55368 4.93029 
1 456 9.62072 6.45309 12.299 8.16446 -3.68195 4.08029 
1 488 10.6424 5.47195 16.0418 4.55983 -4.96098 -2.63616 
1 677 7.99544 0.286609 15.958 2.90804 -9.06038 0.869121 
1 454 13.581 2.61689 11.0223 3.88104 -6.08422 -3.65123 
1 780 7.88151 2.38462 16.202 -2.7302 -3.02447 -9.12303 
1 497 8.99634 1.42374 20.3076 10.5312 -6.19862 -3.17006 
1 125 9.31987 1.88343 17.3081 5.37425 -5.92174 -14.7009 
1 596 7.48927 5.64989 18.9543 -2.48074 4.92595 -0.617263 
1 478 11.7185 1.35632 17.2115 -9.63944 -2.65097 -4.79618 
1 504 13.7261 5.6552 19.078 -0.420288 5.40077 -3.99609 
1 630 13.3681 2.52562 17.9617 -7.75548 12.2289 0.889586 
1 481 9.47196 3.92614 17.5392 -7.9511 -3.71831 1.63794 
1 495 7.99656 2.82737 18.7731 -3.0917 -9.40098 -0.347909 
1 483 12.9101 4.49557 17.5864 6.36531 -3.07486 -1.37959 
1 496 10.6764 2.65342 18.8223 8.66928 3.28712 3.01415 
1 494 13.2752 0.233451 18.5618 -1.20032 -1.38525 -5.18404 
1 501 9.18512 7.16868 20.2671 12.9368 -10.7066 3.36549 
1 120 9.59543 4.23204 19.9707 4.26159 5.55971 -9.2817 
1 598 9.5026 6.39822 17.8869 8.17696 2.08359 1.61529 
1 498 12.4954 3.92006 19.7786 16.2851 -0.740339 5.47864 
1 493 12.2157 1.15305 20.1867 5.00663 -1.33845 -7.70738 
1 397 10.4094 5.41664 21.6217 -3.02324 -5.78256 2.12138 
1 502 11.2199 5.54384 18.6334 4.0818 -1.31959 9.83074 
1 392 11.1404 3.32108 21.3802 1.10452 9.51389 3.11284 
1 461 11.3421 3.41657 16.2587 -2.92158 1.25021 -8.18238 
1 473 12.4767 6.84886 16.8553 0.825091 -2.99732 2.00761 
1 399 13.4512 5.0037 21.4299 -4.53944 3.50283 1.46383 
1 475 8.1308 0.303074 18.2877 -18.4458 -11.1409 4.55809 
1 503 11.8371 6.67263 20.5395 -4.89791 1.89726 -17.3623 
1 394 13.4135 2.55885 21.3306 0.0883153 7.33956 0.808005 
1 35 7.93993 5.9046 21.4466 6.27519 -4.6166 4.40467 
1 689 8.25954 3.07526 21.5485 8.77257 -8.56348 -11.0018 
1 471 7.95517 5.11531 16.2618 -3.08177 1.99455 5.44088 
1 520 9.44545 9.77478 1.34044 1.18145 -3.59641 2.11707 
1 521 14.0073 10.9771 5.25948 -0.988501 -15.464 7.08005 
1 12 7.83079 8.29574 0.0966054 4.09394 -7.33006 1.83609 
1 396 10.6061 7.99001 2.61137 -4.33124 8.92392 6.74449 
1 150 7.926 11.0809 3.01986 7.728 -5.12334 -10.6315 
1 398 8.45513 7.95601 3.06607 3.6419 4.52099 9.60688 
1 511 10.7231 10.9728 2.67621 -7.2461 -8.19304 3.67233 
1 260 9.52875 12.0019 1.12832 0.895491 -0.207003 4.2678 
1 513 12.5528 11.9284 0.773216 -13.103 12.4106 -7.51972 
1 522 13.6064 10.7584 2.91757 4.50102 -4.42409 2.72957 
1 715 13.5387 8.1427 2.1805 -3.37204 -8.9602 4.65981 
1 525 9.39107 12.0308 4.09606 -3.95449 10.3782 -3.88432 
1 515 10.9572 13.2708 2.67358 -0.0642048 0.407961 -3.49796 
1 611 13.3337 13.515 2.79464 0.153385 -12.1708 -6.00234 
1 519 9.1593 9.54998 4.29625 -0.599545 1.35429 6.54164 
1 535 12.4648 9.10215 3.84752 -2.05142 2.74744 -0.622634 
1 512 12.2231 9.50062 1.63551 12.5083 -0.53337 -25.0306 
1 528 8.03505 13.4683 2.32178 -1.78239 0.355211 -5.25616 
1 527 12.3662 12.1888 4.16562 -8.98557 -3.49533 -1.83337 
1 526 10.9193 10.819 5.10896 5.84748 8.66572 0.136799 
1 507 10.7099 8.36346 0.203842 -2.8878 -5.16985 -3.94733 
1 533 10.8016 8.37621 5.32256 3.25496 -1.04838 -3.44267 
1 745 13.5552 8.42125 5.3551 0.248232 4.42869 -8.95914 
1 637 8.17612 13.8287 5.30691 2.95604 -3.04872 -1.03567 
1 866 12.0272 9.33993 9.90452 2.00162 5.42529 2.91938 
1 532 9.41597 9.68495 6.86189 9.23531 -13.1277 11.9657 
1 195 9.67706 9.51915 9.41065 10.7393 3.22079 6.42473 
1 534 12.3942 9.82 6.97616 -2.37837 -3.22684 1.69084 
1 842 10.7311 13.4664 8.15574 4.25 1.63092 0.0858279 
1 849 13.5194 10.7034 8.30928 -2.19308 -13.3099 1.6724 
1 537 12.1334 12.2796 6.49862 -3.90868 4.40029 -9.30573 
1 548 13.4672 8.40569 8.252 6.95428 6.14068 1.16897 
1 549 8.33335 11.0657 7.87467 -6.5842 -11.9248 -0.662303 
1 508 9.66873 12.2807 6.49957 -8.10646 4.42972 -0.40821 
1 538 13.5953 13.2483 5.46173 -3.87903 2.49228 -6.19728 
1 545 8.46996 7.78782 8.0882 4.82312 -6.74473 7.79737 
1 550 9.47913 12.4027 9.42852 0.697556 -5.61847 5.15743 
1 539 12.0521 11.8981 9.21146 0.0999714 -0.716711 -5.80156 
1 569 13.2249 13.5248 10.5028 4.66817 2.81817 1.52942 
1 947 13.1501 13.5273 8.26033 -9.18573 2.96296 -10.1806 
1 541 10.8115 10.734 7.93919 6.71324 12.5426 -1.28885 
1 312 8.19374 13.4253 7.90134 -2.7227 -3.62315 13.0802 
1 551 11.2892 8.10404 8.33783 -3.60755 -0.295859 -6.47457 
1 531 8.14834 7.52652 5.5436 5.73969 -3.88501 -2.21146 
1 557 8.22706 8.15848 10.4237 0.703973 -0.470965 -1.06088 
1 645 11.0511 13.606 10.6388 -8.69552 -10.7029 -3.8606 
1 567 7.90675 13.4718 10.7212 -8.18087 9.08346 -5.19365 
1 524 8.10263 11.2984 5.76697 7.32988 7.68093 -12.7755 
1 542 10.7155 13.9056 5.59853 8.71999 -2.50432 -6.63055 
1 578 13.3621 11.1914 13.4728 4.75912 2.12776 -17.146 
1 458 10.2533 8.21167 13.6033 -0.0685344 -2.84283 -8.44136 
1 575 8.12448 11.213 13.6469 4.91457 6.6527 0.799768 
1 342 7.92818 13.4287 13.8343 -0.974128 5.76719 0.565206 
1 558 10.3565 8.13145 11.0003 -9.26361 0.817281 -12.9941 
1 566 13.7346 8.75745 13.3849 -7.75733 -0.719901 1.96694 
1 564 12.0189 12.3069 12.2492 2.88908 -13.9198 4.61261 
1 583 9.16814 9.17636 14.912 3.54945 -2.42896 -1.6848 
1 581 10.9523 13.7026 13.4685 7.14614 -15.2014 8.28165 
1 580 9.12428 12.5647 12.2541 -18.8041 9.29068 -12.3117 
1 582 11.941 12.2172 15.4705 2.20281 -0.939521 -1.7079 
1 577 9.14255 9.5206 12.5292 -2.49278 10.3383 4.30453 
1 576 9.80932 12.7023 15.0486 8.89564 -2.88941 -2.84703 