ITEM: TIMESTEP
3400000
ITEM: NUMBER OF ATOMS
1372
ITEM: BOX BOUNDS xy xz yz pp pp pp
-5.7722185584070829e-02 2.3902522185578384e+01 0.0000000000000000e+00
-5.7722185584070829e-02 2.3902522185578384e+01 0.0000000000000000e+00
-5.7722185584070829e-02 2.3902522185578384e+01 0.0000000000000000e+00
ITEM: ATOMS type id x y z vx vy vz 
1 50 6.49684 6.61771 3.50056 -8.09117 -8.49777 0.3655 
1 33 3.55379 1.66333 4.86349 9.31523 -1.51209 -11.7105 
1 45 6.78011 5.01017 4.93471 -2.57679 8.91548 -4.80651 
1 48 3.74001 6.71239 3.0951 5.47353 -6.43039 -2.02424 
1 44 6.65097 3.12534 3.32485 -11.1726 -0.00486388 -5.57206 
1 3 1.30336 0.0911572 1.90689 8.13633 1.29505 -14.6397 
1 27 1.74274 1.91343 3.61347 1.05844 8.1558 -1.47633 
1 8 2.94446 1.29429 2.10689 0.163061 -0.99246 -2.42141 
1 6 4.84228 1.55696 -0.156258 6.87821 -11.7245 -10.034 
1 10 6.52867 0.628691 1.36789 6.06655 -10.3083 -2.91363 
1 41 5.01157 4.98225 3.55923 -4.89269 -4.60468 0.441306 
1 40 3.51562 3.63067 3.48222 1.77471 3.74579 -9.48865 
1 13 1.58336 3.54514 1.78152 4.09603 0.374051 -5.91322 
1 49 5.00149 6.31738 5.16654 9.73119 5.71591 9.52833 
1 43 3.1558 5.12336 5.31557 -9.30323 -7.38194 -7.40859 
1 38 1.61179 3.3134 5.28162 -1.44257 -2.50941 -1.31719 
1 17 5.16862 3.68269 1.72843 4.96899 4.11201 -1.27552 
1 18 3.48836 5.06026 1.42796 1.22802 7.80115 6.00752 
1 37 1.66628 5.39251 3.86442 0.277024 1.87183 2.27705 
1 20 6.90692 5.07492 1.55489 4.43722 -1.65941 7.38782 
1 31 4.79493 1.59621 3.0005 -6.61378 12.268 -12.97 
1 22 1.97577 6.97824 1.65233 -6.51005 3.66374 8.59468 
1 42 4.99169 3.40827 5.32092 -2.20015 -16.2484 1.08755 
1 24 5.41183 6.78893 1.3989 -6.52769 -0.809627 7.12235 
1 47 1.50586 6.94948 5.28394 9.51155 -1.77845 14.0156 
1 35 6.39796 1.85629 4.92069 8.55483 -18.2352 14.0354 
1 14 0.189289 5.48865 1.80831 3.73982 1.8644 -0.932183 
1 7 4.64958 -0.226042 1.28247 6.8103 -16.7734 -1.51105 
1 15 3.49368 3.51668 0.026242 11.7603 -0.633106 -0.223009 
1 2 2.05059 1.68417 -0.0150826 3.5613 6.19821 1.39676 
1 12 1.58668 5.31456 0.194366 10.9528 -0.842452 -4.79109 
1 11 0.0702571 3.40499 0.0606919 -1.39407 4.7081 2.62081 
1 4 0.0212429 1.84223 1.68104 1.41947 0.985094 -12.2354 
1 19 6.69553 3.00981 0.618186 5.93181 12.53 -0.199497 
1 88 7.13395 6.9126 10.0917 8.07101 -0.943254 -19.478 
1 52 1.5388 1.68683 6.3912 -10.6858 -2.99437 7.52721 
1 100 4.85112 6.81493 11.9816 -6.41915 -2.82747 10.2975 
1 87 3.46453 6.57939 9.83938 -8.04663 10.7303 -2.5452 
1 77 1.26345 1.19102 10.2285 -4.4397 -10.6964 4.06195 
1 62 1.58657 4.8777 6.88666 7.45645 1.72706 -9.93406 
1 79 5.18485 1.67592 9.90412 -0.957564 -1.15588 1.26665 
1 58 3.33144 1.29409 8.24439 -3.28362 -2.82825 1.49986 
1 83 3.04763 2.64078 10.0171 8.69844 5.57775 -0.278214 
1 73 3.4388 6.5963 6.77513 -12.1489 -6.24593 0.907746 
1 82 1.62062 4.4934 10.0712 9.38651 18.6405 -2.13788 
1 59 6.53212 0.0206662 6.98167 -3.63773 -13.5795 0.215464 
1 63 1.76931 3.04824 8.18984 0.757109 7.63092 6.85107 
1 85 7.25666 3.40014 9.82732 0.299876 -11.2546 0.370833 
1 65 3.40576 3.47468 6.74541 7.56224 -1.76636 -10.0742 
1 75 6.81527 6.883 6.92154 -9.89678 -7.49469 -10.7301 
1 67 5.4321 3.21459 8.25296 -1.81717 -5.39537 8.84857 
1 68 3.45168 4.86573 8.62112 18.8053 3.32564 0.75599 
1 69 7.44632 3.6997 6.67627 0.795498 -2.66941 -10.4301 
1 70 6.91387 5.04599 8.39161 5.29914 -6.67326 13.7071 
1 84 5.38168 5.09457 9.99421 6.40507 -4.23947 -1.60359 
1 72 1.80821 6.34889 8.37817 -10.5482 -3.15865 -3.57129 
1 60 7.14508 1.60568 8.45979 2.19145 -7.6948 3.70463 
1 74 5.24104 6.74767 8.47234 3.32359 -6.67723 6.10527 
1 66 5.39158 4.79243 7.11489 3.20856 -6.78056 -3.24277 
1 56 5.07232 1.56405 6.6799 8.80278 1.59833 -1.27565 
1 80 6.76191 0.0730798 10.3805 14.7533 0.366212 -4.71968 
1 64 -0.0412026 4.54191 8.52741 -10.5524 3.08851 2.1666 
1 97 3.49417 4.75404 10.9976 -2.89807 5.59482 -6.01563 
1 96 5.18267 3.4762 11.6352 -1.67622 -7.16821 0.821256 
1 53 1.65246 -0.0301659 8.17563 12.5919 -5.29852 -8.61069 
1 86 0.0637633 6.70859 10.143 11.8215 -6.2974 10.8096 
1 92 3.70156 1.4316 11.8208 -4.89784 -4.37495 0.240965 
1 98 6.81569 5.18902 11.7119 7.7575 -5.30019 5.70719 
1 127 1.67229 1.69597 17.1774 -8.16085 2.71949 -5.1644 
1 138 6.89042 6.63906 17.0224 -1.82095 -2.21457 -1.23777 
1 117 5.02719 3.14636 15.0965 3.42906 -2.91069 -5.38384 
1 132 1.54767 4.61532 16.6517 -5.37463 1.77412 4.0944 
1 125 7.00312 6.71247 13.3977 -2.0296 1.31295 -7.29801 
1 134 5.05207 5.01837 16.8441 -1.34472 -6.38878 1.42956 
1 133 3.55111 2.99826 16.8893 2.39856 5.00856 4.85925 
1 124 5.07708 6.89332 14.7787 -3.8346 -3.33823 3.50072 
1 123 3.42305 6.30121 13.5778 2.91906 6.01993 -8.9136 
1 115 3.52929 3.23358 13.3267 9.49516 -0.050618 2.37824 
1 122 1.95452 6.71855 15.109 -4.98324 0.514567 1.09965 
1 118 3.4383 4.4532 15.2468 14.6413 -4.09122 -2.3583 
1 119 6.85066 3.50652 13.5628 -5.13289 6.18359 -6.5362 
1 102 1.96748 1.66343 13.3005 10.3476 -1.05432 -8.6884 
1 94 1.65392 3.32573 12.0861 2.10036 -2.35139 2.03571 
1 135 6.81203 3.33273 17.1023 1.75726 1.60566 1.03727 
1 129 5.29151 1.59674 17.3959 0.529887 -1.17774 4.29115 
1 106 5.1763 1.61071 13.5726 -1.35071 -3.26029 -0.0817096 
1 116 5.21796 4.88072 13.2837 -2.29191 9.70034 1.28367 
1 108 3.32557 1.38586 15.2214 7.65913 -15.0751 5.04901 
1 120 6.61128 5.187 15.1074 5.20644 -4.68637 3.67516 
1 110 6.91683 1.70442 15.3936 -1.76485 -1.86764 1.94193 
1 101 -0.0507021 -0.13363 13.8776 -6.03917 -11.3249 2.56483 
1 112 1.5411 4.94475 13.8825 4.33132 5.46638 -1.22355 
1 113 1.66806 2.78489 15.0798 8.89423 -0.49565 -14.285 
1 137 3.54889 6.62528 16.6647 -0.503892 -2.16276 -1.04354 
1 90 0.310131 1.48655 12.2903 0.308375 1.88853 7.33762 
1 136 0.116881 6.88298 16.9435 -5.50994 -2.64146 -1.70563 
1 99 1.45338 6.26983 12.1841 4.31607 -7.14168 -3.84296 
1 103 1.50827 0.207929 15.7609 3.05845 -3.57163 2.18258 
1 93 6.65138 1.7031 11.8102 0.630956 -8.23975 -6.07591 
1 163 1.56385 3.24742 22.3999 -0.802829 -14.5901 0.406445 
1 169 6.29951 3.58875 20.2376 -3.66429 -3.74345 8.91886 
1 168 3.24663 5.05947 22.0524 1.59213 -11.0969 5.4787 
1 149 1.54847 6.48945 18.601 -2.73759 6.78753 -5.973 
1 164 -0.255728 4.87922 22.2687 -1.56389 3.07741 9.713 
1 144 1.70907 3.48106 18.6212 -1.87262 -4.90832 -0.394896 
1 175 6.80105 6.83503 20.4152 -0.53751 1.6998 -1.3933 
1 143 7.10189 1.62775 18.7943 8.09867 6.47797 5.79739 
1 147 3.21729 4.97033 18.5978 9.22776 12.1633 -0.742772 
1 148 6.59495 5.31875 18.8192 3.51882 2.41813 -5.74049 
1 142 3.11883 1.2491 18.7204 2.58103 -4.68793 -1.88752 
1 150 5.08497 6.82055 18.3339 10.5461 0.0898587 2.16897 
1 174 5.36008 6.51588 21.9327 3.53949 1.35409 9.48293 
1 152 1.60064 1.51881 20.1465 4.18903 -4.50703 -1.109 
1 172 1.49785 6.73907 22.114 -0.139759 2.08191 6.84712 
1 173 3.41403 7.18867 20.2645 -2.09712 -4.38079 2.30167 
1 165 3.00747 3.19168 20.3103 0.0511248 -6.318 6.12392 
1 156 4.81992 1.7139 20.2586 -1.97188 -8.22217 4.91445 
1 170 7.01426 4.77605 22.0374 -2.66657 7.65904 -4.73543 
1 158 3.05818 1.69482 22.0603 -9.25742 -9.75251 -6.72498 
1 167 4.7386 3.29624 22.158 -6.33524 2.52987 -5.53103 
1 160 6.56966 1.93943 22.1963 1.2704 -3.96563 6.76802 
1 166 4.77886 5.36712 20.252 -2.75322 4.89133 10.3847 
1 162 1.72423 5.13058 20.6585 6.47099 -3.47614 -0.163029 
1 146 4.97731 3.38985 18.7035 0.256371 -8.99103 9.19495 
1 140 0.223586 1.69373 18.6331 -8.28629 1.49754 -0.945066 
1 157 4.88411 0.253904 21.7158 -6.21253 2.17176 -3.79356 
1 5 3.17794 -0.154921 23.6934 -1.89477 -10.9233 2.1931 
1 141 5.11794 -0.34534 18.7092 -1.25661 -14.7469 -1.22771 
1 9 6.39673 0.0283695 23.3232 -5.67273 -3.26691 7.74518 
1 154 0.211511 1.69022 22.345 -5.27068 -2.51124 -6.51745 
1 159 6.95535 0.204513 20.5014 -8.75974 -4.20606 -0.997547 
1 171 0.249887 6.57527 20.2402 -15.0026 17.727 -0.00826027 
1 161 0.119768 3.37572 20.4367 -2.85181 -8.6688 7.7605 
1 25 7.08372 6.69944 24.0397 3.21527 -0.24094 0.676786 
1 23 3.24335 6.72306 23.8961 -4.07121 0.548473 4.81557 
1 21 0.175811 6.80203 23.8891 -1.20773 -6.87328 1.34716 
1 16 5.30298 4.955 23.5577 5.1304 6.85832 -1.86142 
1 207 1.73853 11.9603 3.46499 2.90867 -1.22236 2.24219 
1 210 3.58195 10.0436 3.62665 -0.436789 15.0783 6.32323 
1 224 6.5804 13.8114 3.05762 3.81619 -12.8415 -2.71849 
1 225 6.35007 15.4456 4.66495 1.08202 0.8908 -8.16434 
1 213 3.28059 11.7841 5.02385 -2.90952 -1.65403 11.9972 
1 220 3.79772 14.0776 3.48283 -3.26736 7.49193 4.64877 
1 204 3.40737 8.19246 5.10486 -7.36517 -1.4258 -4.64199 
1 183 1.9965 10.0313 2.09403 -5.4515 -9.94203 0.207099 
1 198 3.44617 15.4073 1.09983 6.08976 -0.0485909 -8.46608 
1 203 5.41628 8.78264 3.38167 0.693179 4.05275 -3.76412 
1 214 6.82015 10.4703 3.34618 -1.03108 11.3243 -5.87337 
1 187 5.06892 10.3091 1.56666 2.45263 -7.7146 0.00467667 
1 188 3.52733 11.9686 1.80817 1.8392 10.6345 -5.6939 
1 208 1.84907 10.2592 5.21287 -4.33902 3.54763 -3.91693 
1 190 6.83202 11.9724 1.50371 2.37213 -1.59168 -4.81981 
1 205 6.60029 8.51425 5.31979 -1.12459 -10.6296 3.18004 
1 180 6.65819 8.83991 1.92534 1.42443 -3.12577 0.0327749 
1 193 1.97342 13.7132 2.05202 8.38284 9.52717 -0.0657448 
1 216 0.329779 13.3844 3.26995 -2.07324 0.0890051 -7.21524 
1 201 1.66049 8.44258 3.43063 -1.74385 -10.2171 8.16406 
1 222 4.89889 13.8494 5.27892 11.0594 6.51287 7.99125 
1 197 5.05586 13.4944 1.56831 14.2915 7.63058 4.01107 
1 200 6.73266 15.5437 1.16123 2.9167 0.952298 9.56811 
1 211 4.83021 11.8215 3.51873 4.7155 9.97055 1.19714 
1 215 6.45605 11.9072 5.20746 -4.38195 -3.46713 0.352495 
1 179 3.85101 8.43961 1.63884 -3.65747 3.36845 2.05555 
1 177 0.249494 8.33449 1.71761 -4.16876 12.0271 -10.8091 
1 212 5.05929 10.3632 5.18505 -2.99643 -5.38455 4.63918 
1 218 1.80566 13.6869 5.16043 -7.41946 -11.8047 -12.9759 
1 217 1.13826 15.5001 3.38737 0.984106 1.63804 -13.9659 
1 221 5.12834 15.844 2.90661 -2.73944 -3.43131 -1.48418 
1 209 -0.0249375 11.9685 5.04257 -11.5709 1.62715 5.75103 
1 219 0.00352903 15.7538 5.48813 -1.25249 -7.54715 -4.65555 
1 189 6.71856 10.0707 0.322316 -2.9038 -8.94726 -6.15819 
1 184 0.539663 11.4283 1.60866 -7.02973 -7.91276 1.73679 
1 206 -0.226653 10.1711 3.342 -3.91875 9.90342 9.56832 
1 192 1.45376 15.1218 0.480235 3.58474 2.27878 1.59744 
1 191 0.598963 13.4088 0.328983 1.81803 0.745613 -4.04089 
1 185 3.12086 10.2823 0.3448 3.49672 -5.23555 9.50985 
1 178 5.36261 8.33193 -0.332165 -9.23119 -9.85117 -4.45447 
1 235 3.31778 10.102 6.84166 2.23222 -3.78694 -12.6838 
1 262 6.60352 13.6953 10.4987 10.1484 7.2179 -0.722474 
1 239 6.65043 10.5079 6.82539 6.22927 -2.2032 -9.35803 
1 241 0.0688692 13.5759 6.85138 4.58558 3.22524 6.93542 
1 252 5.20756 7.97972 10.1605 4.40503 -2.32591 -4.68602 
1 242 1.97387 15.4073 6.69991 0.64621 -6.98354 -7.4008 
1 232 1.56199 11.82 6.66215 2.94568 0.621136 -4.62841 
1 233 1.5029 10.2134 8.63526 -13.209 2.87711 -4.96888 
1 260 3.46301 13.8507 10.2262 -11.7715 -2.57007 -2.68863 
1 259 1.59733 15.5649 10.1885 -3.6705 3.74744 13.0367 
1 236 4.90498 11.8287 6.91695 7.16712 -9.63897 5.20991 
1 237 5.00339 10.1401 8.94733 3.72836 7.937 -3.54668 
1 238 3.32007 11.9577 8.68212 9.73939 9.21285 2.53134 
1 245 3.58728 13.7461 6.94563 6.35276 -12.3136 4.19424 
1 240 6.58196 11.8149 8.86854 -6.37221 2.5522 8.42548 
1 256 4.89365 12.0254 10.3903 6.33268 -1.4412 10.1026 
1 230 6.87992 8.54635 8.66355 -3.13136 -8.10838 -1.11515 
1 243 1.77503 13.4782 8.81246 1.6626 -1.30543 8.22825 
1 257 7.07976 10.347 10.4197 5.03124 -9.27032 3.28572 
1 228 5.1095 8.61761 7.12767 -0.875537 4.96548 8.28521 
1 258 -0.0221419 13.859 10.4974 4.52619 -2.14285 -4.88688 
1 247 5.11944 13.5817 8.87001 4.69713 4.09475 1.263 
1 249 6.57795 13.5697 6.83096 8.19342 -0.953431 -12.6901 
1 231 0.0317506 10.0703 7.00443 -4.04814 0.302104 5.3648 
1 246 5.30648 15.4081 6.81646 0.804499 -4.07925 12.3004 
1 255 3.47412 9.76622 10.1542 2.1077 -4.01565 -7.71225 
1 250 6.99 15.3725 8.50689 9.48175 -2.78941 2.75882 
1 251 1.64832 8.4466 10.3137 15.9212 -0.447249 -3.10538 
1 254 1.62989 11.9453 10.3537 1.85248 13.7842 3.20362 
1 253 0.180607 10.1516 10.5803 -4.36685 -18.1535 0.755649 
1 261 5.23353 15.4548 10.3699 -5.77783 -5.99302 2.7399 
1 229 3.39563 8.39496 8.22141 -10.1443 5.58378 -5.11144 
1 226 1.7928 8.62013 6.97626 -0.318349 -0.0620509 7.38729 
1 248 3.4106 15.4585 8.52495 5.98265 3.97411 2.60304 
1 234 -0.212008 11.8856 8.7574 -6.68082 -7.99739 11.3664 
1 227 -0.309834 8.42115 8.53252 -9.17807 1.74828 -4.82166 
1 265 6.69864 8.48615 11.7802 0.081949 -2.28998 2.15281 
1 244 0.155162 15.2528 8.29528 -3.8913 -0.0374608 -5.80698 
1 269 3.34759 12.0451 11.9817 -6.06551 -9.30378 0.360409 
1 268 4.98008 10.3703 11.8102 9.66233 -1.07575 11.3504 
1 266 1.92258 10.1664 11.9577 9.21957 0.519533 9.66666 
1 312 6.82516 13.34 17.3124 -9.89147 9.76909 -10.6055 
1 276 1.90123 8.58372 13.9444 3.94349 -7.68411 -2.98272 
1 310 3.20823 14.0262 16.8295 6.12242 3.2887 2.81407 
1 307 6.4073 10.018 16.886 -2.2215 3.97581 -5.12051 
1 309 1.39637 15.4327 16.9528 -1.16326 -1.28016 1.89472 
1 284 0.136034 12.0309 15.2026 -8.69563 -9.20933 4.95258 
1 306 5.12868 11.9078 17.0444 9.80033 4.77798 9.7711 
1 293 1.39641 14.0521 15.2428 -1.10377 0.977966 0.695966 
1 299 7.04803 13.5305 13.5866 -1.65671 2.08197 5.48444 
1 280 6.90208 8.49006 15.1844 7.15786 -11.0831 -7.09195 
1 297 4.96816 13.7166 15.5556 12.7624 5.67884 8.83043 
1 277 -0.119303 8.27311 14.8231 -2.29728 7.07356 4.97362 
1 295 2.94589 13.5958 14.0403 -11.4243 3.68744 -4.64432 
1 304 1.56937 11.8789 16.6826 10.5497 3.37948 -2.75318 
1 302 5.06484 8.34077 16.7073 8.10347 1.61323 0.640943 
1 296 4.93392 15.2424 13.7832 -2.07185 7.98507 -19.6894 
1 301 1.85196 8.1712 16.7607 4.73566 12.8783 -4.89407 
1 298 3.16594 15.5793 15.3001 2.51933 2.23914 -0.502654 
1 300 6.85249 15.0206 15.3089 -0.794782 10.84 -16.025 
1 282 1.59091 11.8928 13.1597 -8.08087 -9.76405 14.4531 
1 283 1.68754 10.226 15.0449 2.1216 -1.72678 -5.26804 
1 311 4.87201 15.143 17.4362 0.575123 -8.79131 -4.36821 
1 285 3.50976 10.2667 13.5038 3.76789 -0.605542 5.47365 
1 286 5.12469 12.1179 13.4374 0.360102 8.67181 10.0663 
1 287 4.91994 9.94492 15.3293 -1.87792 5.33342 0.155701 
1 288 3.47689 11.984 15.2758 11.1525 5.32066 -1.58311 
1 289 6.60252 9.83723 13.6427 -3.02227 -5.47856 8.55469 
1 290 6.31735 11.818 15.2043 -6.86683 2.15739 -1.44111 
1 292 0.918678 14.9548 13.6742 3.71542 -2.23181 -10.6899 
1 273 4.78224 13.6463 12.13 3.56391 6.90607 -1.42382 
1 305 3.37735 10.1605 17.0606 -21.1586 3.51464 7.73834 
1 281 -0.183195 10.3655 13.5822 -12.1849 12.0705 -10.0034 
1 278 4.81549 8.65005 13.2906 -1.14805 2.4238 7.26041 
1 279 3.47711 8.39121 15.0287 7.1949 1.88168 -0.242178 
1 271 1.85514 13.9957 11.9188 4.58765 6.17551 -10.7397 
1 274 3.23247 15.4913 12.2064 9.88115 -2.17571 4.14075 
1 267 -0.113779 12.116 11.9999 -5.89845 5.00245 -1.62734 
1 270 6.89353 11.9134 11.9926 2.04987 2.10054 0.319181 
1 263 0.386819 8.68084 12.1156 -3.58143 -6.34404 6.06805 
1 264 3.0241 8.29746 12.0279 -4.09268 -1.26655 -0.942959 
1 275 6.48053 15.2118 12.0449 -1.66756 -8.05315 1.33894 
1 320 6.75131 11.7105 18.9686 -2.23492 3.93542 -0.274348 
1 326 1.41259 8.52886 20.4381 1.57612 3.83835 1.93709 
1 330 6.60744 8.53247 22.1197 -3.78043 2.59644 -1.31486 
1 316 1.5215 10.1463 18.4617 10.1001 0.547628 1.83953 
1 349 6.60263 13.0259 20.9717 2.503 1.70173 9.2275 
1 324 2.92936 15.5752 18.4728 6.05507 -2.9229 5.12029 
1 186 4.60705 11.5558 23.7201 11.5443 5.16269 15.0253 
1 329 3.27841 8.3267 22.2747 -5.95447 -19.8505 0.385822 
1 321 1.67136 13.6487 18.5536 7.59683 1.95427 10.679 
1 319 3.31341 12.1108 18.5736 -13.1779 -0.982292 -9.18301 
1 323 4.88015 13.5083 18.9804 -2.50133 4.03104 -2.02053 
1 314 3.035 8.1276 18.5197 7.48266 -2.04604 -10.4557 
1 325 6.95596 14.8541 18.7986 1.14106 -11.7908 -10.6974 
1 348 3.39115 15.2758 22.3856 -2.69061 4.1454 2.39928 
1 345 3.2178 13.4752 20.3869 6.24667 10.6701 0.0475286 
1 328 4.79618 8.58909 20.5342 -7.50889 -8.82537 -2.86009 
1 342 1.57172 15.3824 20.3522 4.20196 2.8966 -4.95662 
1 346 4.65946 15.1886 20.4611 -7.00818 -5.56463 -3.10073 
1 343 1.50315 13.8033 22.0333 -17.192 -5.82642 1.35244 
1 332 1.6958 11.8689 20.1173 -14.0099 14.2629 8.22411 
1 333 1.70503 10.1455 22.1594 3.10221 3.2513 -4.30602 
1 318 4.52088 10.0943 18.5141 -3.57896 -9.77749 -6.70484 
1 335 3.09125 10.0146 20.2394 8.67995 -0.235976 4.28976 
1 336 4.62367 11.5986 20.3458 -4.79143 -0.937318 2.4894 
1 337 4.59478 9.94924 22.4574 11.6404 -5.80586 2.13652 
1 338 3.20239 11.6707 21.725 3.49775 -1.2999 3.36119 
1 339 6.35487 10.3105 21.0054 -0.702452 -9.39335 3.45288 
1 340 6.62653 11.3797 22.7847 -7.82798 7.65347 0.996356 
1 347 4.79894 13.4386 21.9638 -4.84849 -7.08861 4.49829 
1 350 6.39991 15.1922 22.0464 -4.88799 -4.27179 -1.12995 
1 317 -0.0191597 11.9708 18.5284 0.731091 -0.848307 -0.11836 
1 315 6.37474 8.69994 18.5756 -3.7172 4.55141 -2.83793 
1 344 -0.198322 15.0148 22.5299 -4.41129 0.176186 -0.698857 
1 331 -0.0757008 10.3158 20.5406 4.59412 4.95302 -14.3151 
1 334 0.195202 12.0814 21.932 -0.43521 -0.37037 -9.07169 
1 341 0.249842 13.537 20.3274 -5.19281 3.33032 1.23799 
1 327 -0.148319 8.35562 22.1179 2.21339 3.31329 3.46987 
1 196 5.07194 15.2597 23.8586 -12.9979 -4.98324 -6.41685 
1 182 1.69046 11.7636 23.5019 0.242165 -2.18719 -3.48515 
1 181 -0.0296709 10.5714 23.6677 -5.31468 14.0459 1.07268 
1 176 1.55501 8.62319 23.7854 -11.268 7.07658 8.57735 
1 199 6.60553 13.5491 23.506 3.61803 -11.4417 -7.96725 
1 195 3.18736 13.3517 23.859 -1.88688 -3.36154 4.10082 
1 375 3.36807 17.3835 3.02639 13.114 -2.45273 7.04544 
1 376 4.95678 19.0751 3.01494 -4.9753 11.4577 -3.6777 
1 353 1.64456 16.9471 1.43025 -1.13375 -2.56714 -4.57529 
1 32 5.27101 23.647 4.7735 -8.891 5.65312 -0.250925 
1 378 3.58932 18.8804 5.12815 -2.6754 -4.58228 1.83769 
1 385 3.38416 20.5469 3.18935 3.12316 0.477871 -2.48329 
1 357 4.95099 17.6657 1.11509 9.12557 4.00931 5.45771 
1 358 3.22428 19.1656 1.26243 -3.88582 -0.0173188 -5.89145 
1 383 1.85083 20.4933 4.73163 -4.83191 -7.71912 -1.64248 
1 360 7.08767 18.999 1.48526 -3.20387 5.19042 -2.16439 
1 389 7.11224 20.3255 3.29729 -6.86387 -10.8805 2.05543 
1 377 5.33944 17.5118 4.7925 -1.59069 -10.2371 -13.3597 
1 363 1.27532 20.7455 1.49341 1.1661 -3.34944 -3.13468 
1 388 3.38495 21.6492 5.37373 1.16606 -8.0631 -4.9017 
1 382 1.66397 22.2693 3.26871 -1.58783 -3.50149 -4.52822 
1 379 6.77397 17.0258 3.20882 2.0502 -2.98304 7.12185 
1 367 5.13554 20.7031 1.48894 3.38422 -4.30822 0.735518 
1 368 3.05404 22.1677 1.37062 -1.18216 -4.3477 9.36925 
1 386 5.47237 22.1591 3.22055 3.87203 -0.643034 -0.848473 
1 370 6.69457 22.3456 1.31878 -9.99474 3.06538 6.71916 
1 34 7.00358 23.9469 3.28196 14.3012 7.55549 -2.02843 
1 372 1.88693 18.7953 3.22828 -7.22135 -3.39682 -7.41202 
1 373 1.54355 17.3085 4.81103 -1.38615 -3.12378 -2.83735 
1 390 6.95963 22.2208 5.01801 3.45918 8.95784 -7.81236 
1 354 0.272001 18.8469 1.66273 0.658861 1.41767 -6.44195 
1 380 6.929 18.9237 5.20151 -4.63251 1.18441 3.18358 
1 387 5.21383 20.545 5.03582 3.90163 2.53052 -5.51623 
1 28 1.93271 23.8414 4.96006 1.75133 -5.21467 1.31184 
1 30 3.42327 23.4053 3.36753 3.89614 6.80963 -4.94993 
1 366 4.93336 22.2098 -0.558612 -5.23378 -5.13828 -13.0508 
1 223 3.6974 16.1301 4.81421 5.87002 -5.25792 6.81547 
1 374 0.0912955 18.9567 4.86134 3.30708 0.24457 3.6681 
1 384 0.0362161 22.0498 4.8944 -5.16942 -8.36871 -0.252111 
1 420 6.69672 20.3312 10.3682 -8.52966 -2.31879 10.1274 
1 402 1.46452 22.1533 6.88618 -11.4725 0.76621 -0.464522 
1 393 1.98601 17.2605 8.48239 -3.59717 -5.12708 9.77729 
1 415 6.97768 17.3319 10.7784 13.8138 -6.87893 0.899925 
1 395 3.16051 17.064 6.83432 -2.71217 -1.21813 -1.44018 
1 78 3.30147 23.6906 10.0398 -12.2161 9.00656 4.96943 
1 397 5.24881 17.1172 8.56939 -5.86522 -7.41896 -6.64031 
1 398 3.30259 18.7875 9.12588 3.76487 0.670413 -11.2011 
1 399 6.77563 17.372 6.99894 -5.58792 -17.9432 6.26801 
1 400 6.60013 18.7654 8.87849 -3.50706 -11.9214 -2.1554 
1 419 5.17551 22.2952 10.1853 8.74587 -19.7066 1.97452 
1 391 0.280854 17.3385 6.88581 0.0877788 -1.64367 6.84647 
1 403 1.68905 20.6595 8.47604 5.75689 7.0222 -4.16921 
1 418 3.36962 20.8142 10.1992 10.8066 3.31321 -7.47448 
1 394 -0.153294 18.9557 8.51013 -6.03002 2.19771 -11.9411 
1 406 5.3594 22.2496 6.62154 -5.12629 -6.14009 -0.844877 
1 407 4.98658 20.5973 8.61582 -3.70045 4.39068 -8.44889 
1 408 3.24017 22.2232 8.287 -5.67974 7.00956 -5.58992 
1 405 3.54854 20.1902 7.16525 -6.08483 -8.60113 -6.57325 
1 410 6.87425 22.092 8.28839 2.16112 11.5531 4.75135 
1 417 1.46181 22.299 9.99241 9.02623 10.5351 7.51952 
1 412 1.4661 18.9785 10.927 5.42044 -2.48195 3.14567 
1 413 3.47779 16.8805 10.5847 2.2616 5.30029 -6.16554 
1 414 5.0252 18.9146 10.1573 0.416063 -9.53079 13.3774 
1 392 1.59665 18.9696 6.90537 12.6395 -9.70802 0.548048 
1 409 6.79419 20.2723 6.95522 7.74535 -2.31991 -4.11113 
1 89 1.87704 23.7998 11.7208 4.98076 2.82402 4.53521 
1 396 5.02123 18.7479 7.15223 9.20554 2.47379 8.93752 
1 411 -0.0293348 17.265 10.3901 -7.96911 4.46425 -1.74478 
1 57 5.2794 23.8482 8.65064 -2.41433 1.5112 -2.76762 
1 55 3.68121 23.6798 6.46525 -3.02448 3.79956 15.1843 
1 427 -0.180471 22.3707 11.9819 -6.55462 0.267961 8.0684 
1 445 3.68615 20.5068 13.9109 13.6256 -2.71253 -2.52418 
1 105 3.43768 24.0838 13.5097 -4.31029 2.07566 -0.434153 
1 446 4.84375 22.2784 13.9355 -0.997814 -13.5048 0.214821 
1 450 7.13581 22.3327 15.533 -5.47567 9.2003 3.59212 
1 449 6.79929 20.6269 13.765 8.9869 0.16215 10.2321 
1 448 3.11111 22.1443 15.5813 -4.26742 -3.27636 -8.65705 
1 453 3.13552 17.0029 16.8451 4.20623 2.78483 -1.74643 
1 447 5.24516 20.4106 15.6446 -4.09373 4.80952 -7.72571 
1 458 2.93525 20.0928 16.8989 -20.1226 7.38449 0.139973 
1 454 5.20243 18.8834 17.2826 -2.22663 4.70588 4.00598 
1 455 6.84765 16.4701 17.1931 1.54201 0.0664657 11.5808 
1 432 1.42604 18.8845 13.5285 7.06746 14.0654 -11.3941 
1 433 1.22165 17.0295 15.0807 -10.5084 -0.617251 13.6492 
1 457 1.52803 22.1007 17.3228 -0.19962 -2.66698 4.00649 
1 435 3.38499 17.2413 13.9459 3.69376 4.39176 -6.56786 
1 436 5.30941 18.9584 13.9951 10.1813 -4.97273 6.55434 
1 437 5.19062 17.0578 15.5648 -5.19559 4.38705 5.9027 
1 438 3.24971 18.7506 15.4397 3.53156 -4.51044 16.5066 
1 439 7.05142 17.0969 13.6304 -9.92006 5.33911 13.749 
1 440 6.80008 18.6214 15.4762 -2.62623 -4.91659 -1.28582 
1 452 1.44633 18.3276 16.7424 -6.06839 6.00415 -4.75603 
1 442 1.74002 22.3383 13.8778 12.0508 2.22828 -8.26391 
1 443 1.69526 20.6415 15.1011 5.81734 3.40941 -5.49423 
1 459 5.43763 22.0064 17.1551 -6.52841 8.77454 0.762849 
1 460 7.18706 20.7301 17.169 -6.47618 -5.19639 -6.49973 
1 130 6.99524 24.1222 17.0704 -0.0580639 6.47683 1.45105 
1 426 1.60752 20.8002 12.0022 6.58669 -3.08726 5.66759 
1 424 3.58365 18.9609 12.0392 3.20052 -7.08666 -5.93674 
1 456 0.336593 20.2981 17.1136 4.09815 -3.89671 0.967402 
1 430 6.73507 21.9936 12.1808 -7.95777 10.3527 5.61981 
1 429 3.50736 22.2255 11.9224 -3.8694 -1.67585 1.70676 
1 109 7.07775 24.1394 13.4536 5.99584 2.37524 -6.7602 
1 428 5.06264 20.5299 12.062 0.87859 -13.695 0.232839 
1 423 5.1113 17.2212 12.2871 -2.26858 2.14346 -1.88912 
1 425 6.6633 19.0445 12.227 -3.26987 -1.44865 -1.78881 
1 91 5.19618 23.6718 12.0806 0.948191 1.61123 -8.51427 
1 107 5.18819 24.0434 15.5697 8.09101 7.70572 -8.69999 
1 128 3.55878 23.7486 17.1477 2.33971 3.81727 6.18032 
1 421 1.50458 16.9651 12.2021 2.12892 3.76722 4.19479 
1 461 1.18152 17.0114 18.7987 5.62859 -3.18517 -1.57713 
1 465 6.99852 18.4102 18.5568 -1.6985 4.34134 2.42222 
1 466 1.64913 20.2443 19.0513 -1.80317 -0.643208 4.72574 
1 464 3.08063 18.5014 18.6333 5.00729 0.775269 -3.75037 
1 463 4.98523 16.9808 18.7162 0.742934 -16.9254 -5.35001 
1 469 3.44773 22.1526 18.6895 -21.5091 -4.16203 -3.2883 
1 490 6.4848 22.3446 21.6362 2.34603 -16.2451 0.346509 
1 468 4.9999 20.5468 18.6812 -0.934317 3.17752 4.73886 
1 352 1.32222 18.4433 23.7757 -5.01876 -1.90162 8.1763 
1 470 6.75317 22.1046 19.0435 -6.39804 -5.28503 14.8827 
1 486 4.79838 22.1736 20.5304 -3.57345 4.35853 -4.93737 
1 472 1.42663 18.36 20.4417 8.40292 -9.86092 8.10501 
1 473 1.85737 16.8353 22.0946 -3.41916 17.0475 -11.7756 
1 489 6.67292 20.5329 20.2694 9.22054 -0.749136 5.46049 
1 475 3.37924 16.9365 20.3988 -0.821467 3.07848 4.93779 
1 476 5.3122 18.8816 19.8557 -3.20531 -3.09492 3.52694 
1 477 4.95668 17.0809 21.9009 -3.86187 5.82722 -1.64121 
1 478 3.12708 18.8674 21.926 4.61871 -3.79694 -4.51988 
1 479 6.70377 16.8231 20.2529 13.2281 3.00667 -0.747209 
1 480 6.97772 18.6476 21.7656 8.94214 2.77105 -1.05825 
1 488 3.12532 22.1001 22.0181 -2.47043 14.7742 -5.01467 
1 482 1.44212 22.0237 20.5403 -6.01821 -5.95669 3.217 
1 483 1.35207 20.2897 22.243 -15.6578 3.3237 1.63563 
1 487 4.84745 20.8219 21.9212 0.578877 3.69014 -6.0821 
1 485 3.45017 20.3274 20.3539 -1.44366 -2.92475 0.37202 
1 359 6.46807 17.0838 23.5202 -2.86318 0.453124 -10.323 
1 153 1.27768 24.0076 22.0761 12.2444 0.614043 -9.32613 
1 484 -0.224748 22.0263 21.8612 -10.7613 11.2729 1.31802 
1 481 0.15991 19.9158 20.5356 -15.3784 3.98583 4.06729 
1 355 3.39954 17.2593 23.6308 -5.30074 -1.63738 8.09981 
1 361 -0.213381 20.3191 23.9474 -0.887857 0.254837 3.90191 
1 369 6.8731 20.8369 23.3937 -4.13985 4.04534 -3.03108 
1 474 -0.329524 18.561 22.29 -7.53414 2.20476 0.0887338 
1 471 -0.325898 16.6042 20.6661 -6.95438 -5.43298 -4.85439 
1 139 1.68881 23.7601 18.8823 7.51776 -0.5521 -10.128 
1 356 5.24777 19.2719 23.466 6.3628 3.40498 -6.5627 
1 362 1.26461 22.2306 23.8393 -1.12968 7.48439 0.274583 
1 155 3.0398 23.8152 20.547 -3.40651 1.14446 -10.2048 
1 365 3.22197 20.505 23.7362 0.615672 2.75507 8.87927 
1 532 13.8067 3.08534 3.19081 -3.88762 1.56084 -13.3735 
1 534 15.8923 3.68202 4.96464 0.998567 -0.175389 0.252204 
1 537 10.5433 7.03487 3.52882 -3.37377 2.15393 5.31153 
1 511 8.40661 6.83448 2.15809 1.65009 17.3822 1.60346 
1 502 8.40474 3.3514 1.97698 6.60364 -1.55256 -9.67943 
1 496 10.164 1.83288 1.48512 -4.15528 -3.9041 -7.37814 
1 536 8.61634 6.82208 4.79333 -2.39914 7.5952 7.61455 
1 527 8.4644 3.09448 4.85191 -5.47318 10.0894 3.86162 
1 521 10.1339 1.62526 5.06199 -11.2649 -3.54979 5.5894 
1 500 13.464 1.7159 1.53094 10.6998 5.06681 -11.7962 
1 515 15.1532 6.84341 1.82537 13.3955 13.4143 3.10023 
1 525 13.7247 1.73803 5.24675 -0.454436 -3.58428 2.72562 
1 535 13.828 4.77336 4.9064 11.2285 3.00287 1.38815 
1 530 12.1094 3.3093 5.03509 5.73847 2.77397 12.9782 
1 505 12.1111 3.57184 1.69839 -17.2761 1.49474 9.39153 
1 506 9.939 5.25436 1.92111 -4.22316 -3.62943 -1.99026 
1 522 13.463 0.365582 3.21198 6.94558 0.871278 4.49737 
1 529 12.1784 5.05393 3.47667 -3.59013 -3.16235 -1.46177 
1 523 15.6122 1.70162 2.91899 -2.89806 -0.584543 -6.47612 
1 510 13.8078 5.23376 1.45157 -5.43148 -2.42948 -4.45683 
1 533 15.2953 5.21677 3.31885 1.97137 2.29067 6.53813 
1 528 10.2379 3.32686 3.504 -8.91047 -10.9625 0.0820453 
1 513 11.9355 6.7484 1.86788 -4.91636 2.41985 -3.23672 
1 516 8.63765 1.28439 2.95444 2.81389 4.18035 5.90116 
1 526 8.38406 5.16125 3.5369 -6.32407 1.89395 5.52069 
1 540 15.3505 6.77126 4.95469 -11.1306 15.3004 -9.55596 
1 539 13.6824 7.01539 3.75936 6.94384 11.9493 4.62261 
1 531 10.3018 5.23272 4.98492 0.508883 2.45705 4.65785 
1 519 11.9461 1.7792 3.16821 13.612 -2.36646 6.17019 
1 538 12.0019 6.6298 5.27218 0.482751 -0.799629 2.55273 
1 494 11.8618 1.93056 -0.205094 -3.5539 -1.32827 -7.28318 
1 509 15.5585 3.55993 1.58479 2.69212 7.6554 -2.26337 
1 514 13.3982 7.07478 0.202238 -2.16862 0.658639 -3.65468 
1 492 9.02108 0.0494299 1.23998 -13.2838 -11.4444 4.89936 
1 501 8.34028 4.63413 -0.169874 -0.950497 -10.2286 2.15687 
1 517 8.32519 0.0111664 5.04585 -0.212663 9.21599 0.895855 
1 512 9.99644 6.31475 0.116082 -6.93699 -3.33813 1.93421 
1 499 15.1603 -0.0776816 1.54814 -3.94579 -3.1402 2.49635 
1 520 11.9073 0.0248876 4.5578 1.96147 -6.25954 8.43743 
1 503 10.2451 3.63744 0.165753 -11.0101 -9.66861 2.91848 
1 508 15.3396 5.22389 0.0655334 -4.59485 4.19238 -8.00698 
1 551 8.93641 5.56207 6.73478 3.4828 -2.294 -0.841794 
1 552 9.0042 3.20762 8.45375 -0.882176 11.4134 -3.01028 
1 577 13.615 6.89593 10.7621 -4.7401 -5.55956 -4.85382 
1 565 14.7966 7.01197 9.26946 10.8918 -13.313 -4.48112 
1 576 10.4798 6.79605 10.0774 5.35016 -8.65228 3.69023 
1 546 10.7027 1.56804 8.49848 4.09276 8.44213 -9.75988 
1 572 10.3447 3.59336 10.4947 -8.052 11.8497 -2.7554 
1 553 10.1678 3.46118 6.5025 3.24401 10.9403 -4.37534 
1 544 11.8872 2.02201 6.76353 2.24881 0.244669 7.09683 
1 550 13.8713 1.95726 8.31147 -13.9973 -8.31855 1.05871 
1 559 15.7431 3.27332 8.70349 -4.34258 -5.20589 2.48918 
1 542 8.62491 -0.142681 8.46415 -3.93021 -9.259 2.77404 
1 575 15.6895 5.04738 10.6259 -4.94715 4.50389 -4.48739 
1 554 12.0922 4.942 6.66655 10.814 0.111524 1.50665 
1 555 12.2098 3.19008 8.66196 2.03611 4.55158 3.5541 
1 556 10.4789 4.84654 8.34533 3.45125 -13.5732 -3.11765 
1 584 12.2312 3.44132 12.0633 1.47701 7.59599 10.5672 
1 548 15.5337 1.77642 6.59068 6.64414 -11.641 3.48924 
1 566 8.69744 1.80706 10.3377 10.1352 -8.27643 3.12677 
1 560 13.8226 5.18222 8.45049 0.232406 -14.1475 -4.51791 
1 571 8.6783 4.92383 9.8702 11.4876 1.60857 -5.4802 
1 562 10.6866 7.01538 6.84256 0.468104 0.946362 -8.28927 
1 563 12.0995 6.8717 8.9413 13.1937 -5.01081 3.38431 
1 558 15.4082 5.14258 6.60343 2.72966 7.29047 -6.18035 
1 564 13.8234 6.66849 6.64567 -8.54603 -8.7322 -1.11628 
1 557 14.1264 3.495 6.82245 -0.621194 1.84052 4.63298 
1 574 13.706 3.4965 10.2411 -11.7546 -5.46363 4.12608 
1 568 11.9936 1.78555 10.2207 -1.87143 -9.84056 -6.09016 
1 573 12.012 4.967 9.98639 -6.99551 2.68461 6.31327 
1 541 8.53813 1.62193 6.83861 3.6576 5.41356 0.0840621 
1 543 10.7366 0.0727737 6.31269 0.870686 -5.92725 -7.7259 
1 570 15.424 1.64801 10.0266 -7.2837 4.64389 -5.06861 
1 561 8.77151 6.69027 8.53038 4.65171 7.56123 3.3223 
1 547 13.3388 -0.235967 6.37193 -0.89383 -7.43968 1.33452 
1 545 12.4087 -0.207373 8.423 -2.51925 -0.37238 -5.03019 
1 585 10.55 5.18025 12.1429 -7.59326 1.64798 4.03719 
1 579 11.7977 -0.169656 12.0141 -18.638 -6.37635 -1.36466 
1 588 8.73171 6.63022 11.9673 2.94091 -11.6201 -1.79447 
1 578 8.84404 0.138129 11.6921 4.64414 -0.617532 1.54719 
1 581 15.2238 -0.202042 11.9818 0.220896 -1.69589 -0.18328 