ITEM: TIMESTEP
3400000
ITEM: NUMBER OF ATOMS
1152
ITEM: BOX BOUNDS xy xz yz pp pp pp
-9.8670407592944542e-02 2.3515792348592246e+01 0.0000000000000000e+00
-8.0564050437443413e-02 1.9200564050434224e+01 0.0000000000000000e+00
-1.0465577146575100e-01 2.4942264352003086e+01 0.0000000000000000e+00
ITEM: ATOMS type id x y z vx vy vz 
1 18 1.85741 2.22888 5.16268 4.52821 -1.58363 1.36164 
1 4 1.73457 0.194081 1.27958 11.409 -5.44175 0.992303 
1 3 1.49383 1.17738 3.39031 -12.8243 -2.83765 7.38664 
1 37 3.57387 2.36181 3.72871 0.938618 -3.96471 7.59281 
1 34 3.94445 0.080996 4.20558 0.171214 2.49608 -1.7795 
1 401 7.47274 3.49386 5.96804 11.6371 -2.96552 -0.230641 
1 7 1.75662 3.73165 3.66639 13.9025 -4.09154 -8.60169 
1 8 1.96678 2.40655 1.28798 -1.19582 1.80078 8.1444 
1 40 3.5244 4.95836 3.77114 4.27165 4.82767 -1.35552 
1 32 5.95581 5.78798 3.80217 6.39976 -2.78706 -10.4298 
1 42 5.66731 4.65512 5.64738 7.14278 11.2844 -2.47896 
1 12 1.82467 4.87 1.21463 -8.93186 -12.8826 -1.48848 
1 23 3.98248 1.27473 1.87922 -12.6016 9.49409 -9.41079 
1 33 5.90074 4.64952 1.50191 9.58736 -1.26621 6.20033 
1 24 6.07853 1.31695 3.2955 9.55528 1.22223 2.55451 
1 29 6.0744 2.06761 1.04533 -0.239585 -6.06643 -11.021 
1 28 5.79954 3.67748 3.62525 4.19284 1.06599 2.96423 
1 21 1.92128 4.65761 5.64601 -5.7056 -1.95367 -0.896396 
1 36 6.19576 0.119263 4.98838 11.2242 3.80239 3.00905 
1 27 4.31796 3.35193 2.01331 -8.0049 2.87117 0.694196 
1 31 4.04687 5.91248 1.80376 -1.26149 -5.0262 -8.02266 
1 39 5.44138 2.40423 5.4911 -5.59708 5.95659 4.4018 
1 11 1.53123 6.14131 3.24975 8.58637 2.31589 1.41241 
1 6 0.0937305 3.42711 1.66991 7.39348 3.93882 2.75947 
1 400 7.51135 2.38376 4.21631 -16.0186 2.31952 1.39247 
1 38 3.56136 3.44651 6.15424 -1.12562 -2.52569 10.8849 
1 403 7.78074 4.73938 4.08039 6.45953 -20.6953 3.20686 
1 9 0.0159907 4.52059 -0.0819202 6.64886 -2.33618 -7.15877 
1 15 1.72286 0.0334606 5.38699 10.4971 -0.660405 -22.8701 
1 390 7.65245 3.42641 1.95004 12.3722 1.13625 9.71037 
1 17 0.0180039 3.71797 6.04612 -2.88788 -9.99567 -8.46581 
1 30 3.85348 4.52543 0.321818 -9.04135 6.39671 8.86633 
1 393 7.78591 4.45617 0.203862 7.21653 7.77902 3.07607 
1 43 2.34347 1.36211 7.51039 0.148572 -3.80149 -9.85213 
1 44 1.81367 3.56603 7.62922 -5.42423 -6.3219 23.3578 
1 435 7.46623 3.45738 10.3194 1.1979 6.48179 -4.86288 
1 41 3.74407 6.1772 6.28446 7.92958 3.24786 -19.2882 
1 52 2.09345 3.70116 11.8716 -4.0606 9.61799 -3.74013 
1 54 -0.123128 4.42878 8.32071 -4.6269 0.0306985 9.46714 
1 68 3.94664 2.6058 8.0637 12.424 12.7183 -13.4722 
1 73 4.04967 5.6508 10.3769 6.79039 4.0899 5.26273 
1 72 3.69027 4.77791 7.92432 0.148084 1.73315 -0.93052 
1 431 7.6404 1.20244 10.3775 0.845804 -3.59322 -0.932063 
1 53 2.15601 2.23059 9.51306 3.29752 4.73253 -7.82174 
1 64 3.91678 0.0969014 8.49867 4.71204 -3.68669 3.77821 
1 69 3.87287 3.50854 10.0206 -0.446859 -3.87253 -7.09528 
1 70 5.41028 3.50581 11.6017 3.98553 -0.296138 4.54676 
1 57 1.95142 4.59344 9.65727 -9.22446 -13.2658 -3.98158 
1 65 3.8182 1.10725 10.5624 2.8535 17.1027 1.30662 
1 63 6.00424 5.90491 7.50887 4.6188 -4.66846 -4.70766 
1 75 5.91308 4.77765 9.35821 5.37443 2.34009 -2.86569 
1 61 5.88205 1.12303 7.35574 1.58019 -8.57737 -3.03883 
1 62 6.0447 3.29728 7.43981 -1.12405 8.64036 -3.45287 
1 66 6.13048 0.771287 11.548 8.50896 -6.6282 -4.91653 
1 71 5.86954 2.21378 9.74527 7.34477 6.70092 -4.63662 
1 48 1.71262 1.33944 11.8605 -6.7461 8.18599 11.7686 
1 74 5.54328 6.00992 12.07 -9.85032 -3.47317 0.687555 
1 77 3.94014 2.03922 12.2989 1.65687 4.80575 11.4011 
1 45 1.8732 5.79489 7.62783 -10.0866 1.55883 2.77298 
1 56 1.85323 5.99826 11.8307 -0.858775 3.61076 -15.2839 
1 51 -0.0878452 3.37036 10.5272 -16.0986 9.06489 -14.7649 
1 430 7.57475 -0.029045 8.08716 7.05432 4.19558 4.68918 
1 20 0.336826 6.1431 6.221 -3.55252 1.42384 2.5936 
1 49 1.81573 -0.0681608 9.64035 -17.0156 1.78549 1.28821 
1 46 0.00634806 0.179583 8.2265 6.2608 8.68233 -0.270991 
1 60 0.0282127 4.53728 12.3335 -5.97536 1.40593 -7.10194 
1 444 7.23267 4.61674 12.1737 -8.27484 4.36601 3.15227 
1 35 4.1154 0.902098 6.24683 -0.0810572 4.2195 1.33454 
1 398 7.73304 1.19114 6.30099 -2.01561 -3.60161 1.13869 
1 90 1.62936 0.0614818 17.8636 7.40245 6.39849 -6.1695 
1 80 1.94415 0.869047 15.8779 4.58495 -11.34 -5.31398 
1 112 3.69873 4.58914 16.4768 2.95814 -2.18006 5.59457 
1 97 4.14361 0.656869 14.4552 10.8463 -13.8121 5.68568 
1 83 1.95624 3.11449 15.9942 -3.35507 -10.8685 -1.73626 
1 84 1.92512 2.36001 13.949 -6.3226 -8.40031 -0.484688 
1 59 -0.0659713 1.96126 12.5996 -3.29557 8.16119 -4.05661 
1 100 3.76465 3.11474 14.2716 1.35521 -2.89529 -8.55814 
1 87 1.7753 4.65317 14.4158 5.18147 -14.7385 1.08149 
1 109 3.64815 2.07391 16.5321 -7.31773 -0.233292 0.462368 
1 466 7.26287 3.54023 14.493 0.392663 4.69963 4.60089 
1 101 5.30592 3.29699 15.8892 6.86133 -1.43876 -6.88217 
1 99 5.88109 -0.145109 13.575 1.82936 -13.224 -14.1363 
1 98 5.85869 1.03535 15.7798 4.85086 2.98851 2.94853 
1 111 5.87818 1.94683 18.0794 -3.11707 2.66821 2.93194 
1 102 5.80823 2.17999 13.519 3.43594 0.651449 -2.18223 
1 105 5.66165 4.58158 13.9777 8.49158 4.4871 2.25768 
1 93 2.10231 1.89318 18.2766 8.33432 6.77668 -5.961 
1 114 5.88716 4.55908 17.8233 -4.30948 10.3171 1.77085 
1 96 1.89241 4.4438 17.986 7.23609 -9.11009 -1.09174 
1 104 5.62786 5.75968 15.833 -7.06122 -6.3849 2.11087 
1 103 3.52997 6.13712 14.5683 -8.95722 -15.7056 5.49524 
1 86 1.92341 5.62056 16.3247 3.77089 12.6792 7.67497 
1 85 -0.0147415 5.58265 14.3702 -0.271328 2.42074 -4.79571 
1 479 7.55134 5.91733 18.5547 -7.4732 2.79098 7.82464 
1 79 0.307261 1.23894 14.8104 -3.74622 -12.4622 6.97334 
1 91 0.151493 2.36615 17.1902 -9.28894 -0.678669 -3.87188 
1 475 7.5674 2.39557 16.532 3.82651 -2.5032 -0.604597 
1 478 7.74046 4.84426 16.4761 -0.269151 -7.50607 3.24521 
1 463 7.69985 1.21051 14.5649 4.0166 -5.64049 -1.72062 
1 110 3.71382 3.12037 18.6144 8.23498 -16.2091 -7.80027 
1 78 3.80278 4.719 12.5044 -15.2775 -1.36724 -3.97685 
1 115 1.70131 0.744502 20.3525 -8.17185 -1.01769 11.9142 
1 116 1.9501 3.34234 20.1574 8.47573 -0.188259 0.43335 
1 123 0.184983 3.2625 22.7301 -5.44187 0.100461 -6.18625 
1 144 5.49963 4.82607 22.4861 -0.0127473 -1.29084 -4.96762 
1 511 7.58863 5.34769 22.9824 -8.67003 9.67216 7.84114 
1 119 0.173641 0.836515 23.3501 2.81439 -5.20927 9.28876 
1 135 5.84339 1.16311 24.2341 -11.3204 6.24241 -6.95909 
1 124 2.15444 3.46717 24.2995 13.9223 -2.97494 -3.14189 
1 128 2.39289 5.97137 24.2547 -1.8946 5.1765 3.27692 
1 120 2.13978 1.12981 24.3231 -2.60737 -1.63533 -11.1495 
1 125 1.75805 1.91324 22.2215 6.49538 -4.3871 0.998978 
1 138 3.53493 3.31136 22.727 -4.15794 4.89753 -6.57536 
1 141 4.14784 4.44236 20.6504 -6.67121 -13.1425 0.550348 
1 117 2.26222 5.84396 20.0762 5.16006 7.6906 1.09517 
1 129 2.15367 4.38366 21.9142 0.101787 5.45208 -3.73899 
1 130 5.97325 1.01539 20.4005 5.50926 5.81027 -2.33833 
1 131 5.81344 3.35075 19.7235 2.39696 -7.20915 14.29 
1 140 5.94755 2.90459 22.1153 -2.65606 -5.88257 -9.14377 
1 137 3.84698 1.80535 20.8129 8.58685 -0.543301 3.49331 
1 134 4.0311 0.737483 22.8512 -0.217938 8.38562 -4.00396 
1 142 3.76073 5.9403 22.5245 -14.8241 9.17219 1.07927 
1 139 6.02045 3.72434 24.4662 -1.46909 -3.41848 -1.56317 
1 127 0.368774 5.85525 23.0602 -5.82306 3.84352 -1.98087 
1 132 5.76752 5.89671 20.2488 -2.25079 4.30757 10.8206 
1 126 0.140119 4.77445 20.8371 -10.734 -0.615072 5.34294 
1 143 5.3731 5.77537 24.4081 1.90367 12.6818 -4.5441 
1 503 7.68803 0.70814 22.6371 -9.009 -10.6146 4.8926 
1 22 4.14815 0.0415777 24.812 -3.60505 4.35702 5.70412 
1 5 0.193832 2.23554 24.7897 -6.7899 -2.55611 4.2957 
1 26 4.0928 2.40579 24.7682 6.30113 4.77644 -14.5868 
1 107 3.81337 0.694718 18.8318 2.20108 -7.57415 14.1756 
1 113 4.16655 5.60003 18.6728 10.2499 7.12328 -2.65198 
1 95 0.0376303 5.82003 18.7267 4.83256 6.96547 -7.92013 
1 179 3.53053 12.1814 4.21061 5.09561 -4.71592 8.60046 
1 173 3.6863 7.10376 3.83331 3.54093 -2.16094 10.387 
1 147 1.61634 8.31227 3.08898 -2.54681 5.3129 6.09229 
1 150 -0.170947 10.8107 2.00144 -9.2082 9.71368 -8.2952 
1 166 5.93454 6.99171 1.16454 -2.32944 -6.34873 -0.634779 
1 180 5.82125 12.1565 5.43806 5.06334 6.15741 -12.5292 
1 151 2.18316 10.3376 3.46562 -3.58267 -4.6915 -6.96014 
1 152 1.85808 9.4106 1.01185 -12.232 5.37619 1.86479 
1 157 1.9547 6.99091 5.16358 5.94617 -4.10742 2.33809 
1 172 5.67193 11.9452 1.3767 -4.83144 12.9632 -10.0777 
1 168 3.78962 10.7495 1.90094 -13.2809 7.27591 4.91905 
1 170 5.76782 9.57855 1.38694 8.71969 9.08099 -3.87116 
1 148 1.93207 7.02498 1.22274 1.27039 3.59292 2.24393 
1 154 1.92135 11.986 1.62881 -2.83623 10.6306 -1.81233 
1 176 4.20877 9.55097 3.90724 4.91631 -2.18732 -14.3899 
1 158 0.0387743 9.7495 3.98169 7.1486 -7.89936 5.52242 
1 178 5.83011 9.65558 5.78043 10.5315 5.65764 -1.30258 
1 160 1.93568 9.40596 5.50546 3.75039 6.27247 -6.31082 
1 169 5.5474 11.0469 3.48522 1.11519 2.0898 6.49708 
1 164 3.73945 8.47816 2.07142 2.94612 -2.77791 -0.880292 
1 165 5.91131 8.15551 3.47474 10.4773 2.90964 7.30884 
1 162 2.00265 12.1813 5.29247 -2.65428 3.75873 12.1968 
1 175 5.75177 7.21605 5.51256 11.0773 8.70398 -6.08765 
1 161 0.082192 12.0452 4.24722 -7.42798 5.47654 3.92079 
1 542 7.51362 9.57962 4.30549 -0.401373 0.820027 3.59107 
1 177 3.88221 10.9673 5.94357 -7.5876 3.66741 -0.790033 
1 545 7.70505 11.9531 4.02851 -4.63757 1.64941 8.24945 
1 174 3.85338 8.4838 6.00533 -0.112473 -5.90875 -0.972979 
1 171 3.57568 12.2225 0.025017 2.8978 4.75158 12.8965 
1 163 3.96717 7.33753 0.137371 6.16859 -5.09068 8.40564 
1 181 2.14041 8.08928 7.4794 2.8622 11.8051 2.81903 
1 182 1.95986 11.0502 7.20439 -2.79475 -4.43184 -1.99423 
1 198 3.85042 7.27077 8.44532 3.82757 6.73313 3.39404 
1 201 5.98271 7.04921 9.52577 -3.0805 7.39224 1.08355 
1 187 0.408601 9.54281 7.87792 8.0841 1.34531 -4.26317 
1 204 5.74174 10.5872 11.5678 7.1124 -0.790104 8.90243 
1 205 5.37362 9.41605 9.46542 5.99763 -4.28925 1.15024 
1 203 3.81342 11.14 10.0182 1.54623 1.79915 6.49372 
1 186 2.00879 7.0088 9.72752 -4.47375 -2.09163 14.9573 
1 190 1.86072 9.27889 9.8226 -15.6217 -9.61554 -3.92877 
1 185 1.85336 8.34292 11.7077 -0.724829 -1.15274 3.83135 
1 206 3.7953 12.2172 7.99287 3.29261 -4.55145 -0.0362187 
1 202 3.97962 9.58293 8.01435 8.0276 -5.75883 -0.992063 
1 189 2.4017 10.4947 12.1006 5.04789 11.419 17.6755 
1 192 1.83222 11.6221 9.8087 1.6525 4.63317 3.87795 
1 196 5.68866 8.28508 7.62589 -5.13555 0.514395 -4.05761 
1 197 5.94382 11.0528 7.94341 -2.71648 12.2238 -2.17532 
1 207 5.62982 12.3871 9.69243 1.75754 -1.65277 0.916574 
1 199 3.73903 8.0275 10.3848 7.42554 2.54971 1.3765 
1 200 5.82123 8.33961 11.5771 -3.68635 3.07501 -7.82134 
1 577 7.76575 7.44509 12.2371 2.41353 10.12 -2.24186 
1 188 0.354851 10.5948 10.7929 -0.0938564 17.8858 -1.38845 
1 209 4.19438 9.14919 12.2637 -2.66065 4.76869 13.3729 
1 183 0.163379 7.32517 8.22639 5.66065 -7.66489 3.07091 
1 568 7.62637 8.48261 10.0358 15.7906 -7.31128 0.67803 
1 578 7.56324 9.67672 12.033 -0.626485 1.99626 0.453846 
1 579 7.58184 12.133 12.19 0.73574 -17.9729 7.3887 
1 572 7.37922 11.1231 9.93072 -4.12091 1.46249 -12.9368 
1 210 4.18238 11.664 12.3241 -6.33467 -5.70929 7.8 
1 191 0.0102065 11.8298 8.52107 -3.11055 -0.277173 3.4401 
1 303 2.1026 12.7277 11.827 2.12531 5.11044 -6.62464 
1 540 7.68274 8.20926 6.34048 -0.569016 -2.64648 3.30742 
1 225 2.22012 11.5704 17.8393 9.37126 -2.34654 -0.599981 
1 212 1.77072 8.25765 15.858 1.01337 0.501388 3.17404 
1 218 -0.0207487 7.04337 16.517 0.260861 -5.11286 -8.23087 
1 220 2.19491 6.8394 18.2443 1.81946 -8.97503 2.83939 
1 215 1.92359 10.9829 15.6951 -5.70751 6.50701 -6.10338 
1 216 2.32185 9.10399 13.8798 -3.29259 6.99804 -6.72936 
1 232 5.82928 11.282 13.8473 10.3701 4.55982 3.95532 
1 238 6.12562 9.37273 18.1703 -6.36184 -9.01137 -13.6801 
1 233 3.71095 6.86055 16.5383 4.93906 -0.29899 7.0404 
1 217 1.65588 11.9068 13.8834 0.788839 3.26135 8.41967 
1 228 5.38237 7.12288 13.798 -2.84144 -3.28907 0.295664 
1 235 5.66785 7.24435 18.104 4.37714 -6.44846 5.6842 
1 223 2.04423 9.1487 17.7367 0.246194 6.16498 -5.20453 
1 236 4.02536 9.55589 16.5246 -1.2333 12.1831 -9.69628 
1 240 6.17725 12.0685 18.1205 8.25343 -4.11387 1.30298 
1 226 4.07801 8.15388 14.8294 1.93717 -2.09199 -16.6916 
1 227 6.10937 8.16755 15.9197 -1.64279 -6.02683 2.29766 
1 221 0.168604 9.40282 16.7818 6.41922 -13.1092 1.68077 
1 229 3.85871 10.4547 14.4535 -2.32467 12.2901 -1.86174 
1 230 6.02298 10.5196 16.0341 2.94743 4.16478 -0.819477 
1 231 6.11477 9.28261 13.7359 -5.9704 7.83105 -1.92927 
1 239 4.04799 11.7734 16.366 5.91142 -3.47802 -0.485083 
1 213 1.6866 6.82441 13.9887 7.3655 -0.208673 8.36243 
1 224 0.141639 12.2053 16.8965 2.15177 -4.92866 -5.87507 
1 193 0.0503458 6.99003 12.4463 7.27893 5.41124 -4.07087 
1 194 -0.0888314 9.30094 12.6093 -2.57197 -7.93412 0.0337474 
1 214 0.142635 10.1785 14.5093 13.194 7.87144 5.2753 
1 237 3.99477 10.9326 18.2642 4.8472 -3.1169 -3.63308 
1 208 3.54969 7.03039 12.7218 3.61888 8.38038 18.3047 
1 241 1.2533 8.20721 19.4507 -1.66236 3.13714 -0.687341 
1 242 1.81671 11.0886 19.9669 -1.03182 -3.45584 -3.30053 
1 260 3.4614 10.8718 23.0651 12.3186 1.54884 4.26889 
1 261 5.979 11.1562 24.0467 8.28097 -3.04166 0.90129 
1 246 1.58018 7.18804 21.6909 1.03885 -4.21504 1.48188 
1 245 1.94497 8.04647 23.9997 4.58775 -0.400548 -8.89989 
1 149 0.256507 9.44937 24.8501 -5.18277 0.501405 -0.568146 
1 264 5.80768 12.096 22.0925 11.2115 -15.9249 -8.67081 
1 255 3.89754 7.23862 20.6761 -16.6925 -16.9638 -3.85531 
1 250 1.72736 9.57899 22.1332 -7.47228 3.51337 -2.79956 
1 262 5.62198 9.55649 22.2994 -14.2557 13.5052 -1.00758 
1 263 3.7399 11.7992 21.1292 10.1257 4.12858 15.8111 
1 253 5.653 8.3554 20.5307 3.04635 4.43385 5.5059 
1 254 5.73618 10.8667 20.2323 -2.25676 7.70483 -5.27635 
1 249 1.81372 10.9082 24.3408 -4.3955 3.93311 8.98672 
1 256 3.99944 8.18957 23.0676 -7.44884 4.15324 8.34888 
1 252 1.6235 11.9197 21.915 -4.24589 2.06879 -5.01642 
1 258 5.80813 7.03989 22.3723 -12.551 -6.64654 0.958163 
1 259 3.35556 9.63821 20.6183 -9.7511 0.373568 0.507069 
1 167 4.17601 9.87979 24.8986 8.9823 -1.81785 0.096973 
1 257 5.80377 8.06775 24.2982 -10.3287 -3.42499 -5.73281 
1 244 -0.0979253 8.20519 22.6171 -3.55451 7.01245 8.49417 
1 222 0.21795 10.6757 18.6328 6.18234 -4.61815 -9.6666 
1 632 7.698 10.6989 22.4416 -4.66925 0.3265 0.413406 
1 145 0.145156 6.89369 24.9682 -4.49738 -15.8696 4.80897 
1 234 4.23031 8.93484 18.8471 -15.7819 13.3027 1.72389 
1 631 7.4485 9.23347 20.6427 6.97089 -6.53335 3.84614 
1 635 7.6958 11.7532 20.4535 1.95677 5.73353 0.401247 
1 628 7.54524 8.28125 22.7694 -5.76271 -7.53629 5.54778 
1 627 7.66101 6.92577 21.173 4.26672 -16.6944 0.886464 
1 533 7.58791 9.59806 24.5515 8.01916 0.774097 -0.635525 
1 603 7.63263 8.24987 18.8011 3.8263 -6.31042 5.45283 
1 282 3.87182 13.4097 1.95324 -3.29808 0.320325 6.09576 
1 25 5.93954 19.0978 1.12974 1.33488 -4.74172 -5.69753 
1 294 3.91758 15.6696 6.09757 7.12082 0.771442 4.79198 
1 290 5.94333 18.07 3.06935 2.74095 8.2209 1.25458 
1 269 2.14188 15.9039 3.56516 0.852587 6.59139 -9.23207 
1 270 1.85131 14.1064 0.741691 3.75742 -2.52023 -12.5993 
1 285 3.51405 15.4745 1.97576 5.49221 -3.07194 12.8366 
1 291 5.53667 16.5075 0.859899 -7.5231 -13.6721 9.44988 
1 273 1.99617 18.2501 3.333 5.65684 3.17376 -7.76566 
1 274 1.71057 17.0164 1.59152 0.495958 -8.45667 4.99324 
1 286 5.8187 15.665 3.2167 1.81613 7.00453 -0.665252 
1 296 3.90254 17.2307 3.79878 0.160387 -1.45353 -6.12162 
1 268 0.196223 15.6317 1.86759 -6.19785 2.03578 -21.1824 
1 279 -0.130916 17.2144 4.38668 -9.32311 2.39138 -0.786558 
1 287 5.67323 14.3077 1.41061 13.0967 1.01019 -0.816258 
1 293 4.00666 14.4998 3.87131 3.7322 -2.06003 -3.75055 
1 298 5.80223 17.051 5.3774 4.81398 -3.11822 1.20363 
1 655 7.69073 16.5871 -0.0024851 4.69375 -4.15854 -6.84494 
1 652 7.51017 15.5559 1.85602 0.354414 4.26416 0.163135 
1 289 3.83604 18.0658 1.74901 -9.99254 -3.2373 -3.88308 
1 295 5.79358 14.7102 5.41098 -1.20454 -8.31548 -2.82287 
1 266 1.74034 13.3978 3.2058 -5.55497 3.08637 0.930694 
1 283 5.9419 13.2806 3.37023 -1.91348 -12.5922 -1.17412 
1 281 1.65379 16.8532 5.50895 2.48282 1.31082 -0.173669 
1 271 0.378405 16.6295 -0.0507026 0.501213 -2.92705 0.334963 
1 297 3.71845 17.9327 6.02934 -6.86917 7.33467 -7.57984 
1 278 1.94176 14.431 5.17277 -2.28619 -2.04772 -8.58522 
1 659 7.66897 13.1587 6.06134 -6.23223 0.419681 6.51309 
1 284 3.85619 14.3993 -0.0651789 7.93679 -2.4863 -4.48791 
1 302 0.0424093 13.3751 10.4973 -6.17031 8.953 0.353326 
1 300 1.81813 15.3295 7.21906 -1.08005 13.8747 -1.73794 
1 301 2.04425 18.3954 7.31797 -3.7257 6.96397 12.6293 
1 309 0.0834296 17.9983 10.0871 -7.0222 -2.00031 0.505925 
1 67 5.87641 19.2523 9.41191 2.03673 8.07519 -3.2874 
1 314 5.82218 13.4817 7.34677 8.37166 -4.54529 5.44968 
1 306 1.48956 15.0118 11.9246 4.33551 -0.977208 -2.86027 
1 58 0.118476 18.9828 12.3968 -5.93896 6.82244 9.18977 
1 307 1.79971 14.0013 9.58386 -1.94687 1.97366 -4.57963 
1 326 5.60068 17.0153 9.62689 3.86135 -2.78635 2.53861 
1 327 3.61017 14.313 12.2364 5.15024 -4.63867 -2.68775 
1 317 3.6408 13.3978 10.4606 -3.50088 -3.79233 -4.23067 
1 311 1.54309 17.1256 8.96227 -2.37324 -3.18313 -7.24157 
1 324 3.75608 18.0277 10.375 -6.18841 6.66704 -0.772642 
1 323 3.70136 16.9651 8.36705 -1.06616 -8.2907 1.46485 
1 322 5.79721 14.4538 9.47611 2.63947 -9.59865 -11.8767 
1 315 5.89205 15.7056 7.46327 -8.60086 1.05951 1.12737 
1 316 5.65918 18.2563 7.21391 -2.38666 2.82636 0.970094 
1 310 1.92563 17.8385 11.3644 -2.37798 11.8832 -2.05024 
1 320 2.9064 15.8178 10.0088 -9.67835 11.6767 11.6963 
1 319 3.85299 14.395 8.49403 0.299338 -2.74054 -6.66512 
1 321 5.50941 15.4443 11.7035 1.84028 1.11437 2.05601 
1 325 6.01924 17.8717 11.8697 -1.56836 5.06751 3.58366 
1 318 5.87353 13.1634 11.8511 6.05894 5.40997 -8.00947 
1 696 7.60616 14.7461 12.1061 -10.8614 2.95302 -3.00679 
1 575 7.60597 12.875 8.2052 12.6413 8.98815 -0.747067 
1 299 1.85647 13.1811 7.14426 -2.40382 7.9258 -2.32885 
1 692 7.55081 17.1587 8.26584 -6.00066 -3.02995 0.214206 
1 693 7.69611 18.289 10.4436 0.319328 -13.1866 -5.09581 
1 328 3.53096 16.5546 12.1573 4.45621 -2.44432 -7.15476 
1 313 -0.0262017 16.9494 12.2953 -3.86419 8.45129 -7.04808 
1 76 3.92514 19.1387 12.3482 -0.218438 -3.98229 -5.27121 
1 277 0.125692 15.3735 6.25329 -7.62201 -2.86159 4.60909 
1 292 4.03985 13.4191 6.22707 2.22107 -8.75057 -8.21323 
1 275 -0.0775731 13.171 6.33143 -0.132633 1.73531 3.11727 
1 353 3.6512 14.2105 16.7798 6.54851 6.99033 -4.5706 
1 355 5.8769 14.3785 17.6622 2.20943 0.241926 -0.00321138 
1 344 3.59646 13.0117 14.091 -4.46721 10.3219 -0.0797267 
1 332 1.52501 15.5165 15.8946 -3.26882 -1.71312 5.01549 
1 333 1.79362 14.2945 13.86 -11.2149 -0.0521746 4.95387 
1 351 5.41222 16.7076 13.5598 -20.8653 -2.70078 -7.60777 
1 335 2.08145 17.99 16.1893 -4.38938 7.61896 -2.34057 
1 336 1.98253 16.8049 13.7149 1.00615 3.06035 -1.84797 
1 350 5.73303 18.1076 15.6342 8.2481 -13.5672 11.8187 
1 356 3.64208 16.6454 16.5223 2.80444 0.951278 13.6065 
1 341 0.127741 17.0517 16.5632 -1.85073 6.41393 3.17426 
1 357 3.52669 17.807 18.3947 -5.54193 8.0088 5.76673 
1 343 1.76677 16.3337 18.0685 -10.3339 -1.38572 -3.27952 
1 358 5.85637 16.3559 17.702 -12.3563 -6.88392 8.25157 
1 330 1.72198 13.2996 15.8351 -1.44097 -2.07288 1.67626 
1 340 1.98912 14.1828 18.1373 -0.924403 11.6292 0.615504 
1 349 3.78358 17.9258 14.2729 -17.2995 -1.23971 0.00714237 
1 346 3.58633 15.4557 14.7791 9.11205 11.1903 14.1837 
1 347 5.69223 15.2666 15.7026 7.84624 0.15166 1.38098 
1 348 5.20879 14.359 13.8568 -2.15189 -0.332659 -1.35856 
1 81 1.87525 18.9361 13.8653 3.5894 1.84682 10.4607 
1 334 -0.0554285 17.8104 14.5088 -1.07588 -4.04587 4.76728 
1 108 5.96912 19.0382 18.2931 0.159289 -0.89047 2.78666 
1 725 7.59956 16.6326 16.4723 1.5765 -1.04434 -0.567455 
1 345 6.10734 12.8929 15.4294 -0.799966 -3.40801 -11.7808 
1 715 7.46582 15.7161 14.433 -0.325858 -5.31264 4.85413 
1 331 -0.137929 15.5132 14.4481 -9.98407 -11.1359 -9.06546 
1 106 4.44901 18.9706 16.8245 -9.68953 5.62126 1.97795 
1 342 0.0574348 17.7381 18.5965 1.32649 -1.88618 2.65493 
1 697 7.64742 16.7335 12.4171 -4.99598 11.0351 -0.526811 
1 383 5.94462 18.124 24.1858 -3.88977 7.08419 -8.54807 
1 360 1.70277 15.3566 20.4286 2.08231 -5.06046 4.30467 
1 361 1.92013 17.6742 20.1263 -13.6883 8.82207 -0.462038 
1 384 5.97685 16.5535 21.8552 -4.11757 10.6748 -2.14111 
1 375 3.80663 13.0786 23.1016 3.90571 -1.65837 3.24324 
1 372 5.84666 13.1774 20.0468 3.61689 9.40351 4.63265 
1 382 3.94056 17.7053 22.2679 3.4517 5.29355 2.31656 
1 380 5.81488 14.2355 21.9287 17.1159 2.82547 -8.17758 
1 367 2.23421 14.1848 22.0819 6.50053 3.96873 2.11055 
1 363 1.60016 13.0653 23.9812 -8.47344 5.20876 -3.31371 
1 381 3.88047 16.6923 20.5859 4.30168 -6.70252 4.35926 
1 370 1.95042 18.2916 24.4277 2.4258 5.22205 2.7569 
1 371 1.81634 16.8681 22.0822 8.85274 11.0403 -3.22721 
1 339 -0.0111648 15.4419 18.8894 -7.87169 1.91141 -5.81849 
1 373 6.20404 15.5034 19.8924 2.24293 3.71147 9.37505 
1 374 5.57694 17.9433 19.7468 4.68195 -8.37188 3.66956 
1 136 5.92755 18.6099 22.1088 8.17176 1.76425 -4.10759 
1 359 1.997 13.3616 20.0751 -8.91753 -2.11902 7.92807 
1 377 4.03979 14.3888 20.7483 -4.32166 11.3237 4.76509 
1 378 4.12486 15.4834 22.7027 -9.96996 -6.24882 -2.12813 
1 379 6.21114 15.5592 24.0642 3.14342 -4.04901 8.64213 
1 376 5.66984 13.4348 24.3052 2.96374 -0.436632 3.24825 
1 366 2.23762 15.657 23.8725 1.35063 0.35882 -4.08685 
1 121 2.28351 19.1345 22.2638 -7.67683 -6.45803 -6.23494 
1 133 3.66772 18.9683 20.661 0.0869192 -2.75656 -2.87276 
1 288 3.59925 16.9021 24.7766 0.964865 3.28302 -11.4411 
1 502 7.73769 19.0785 20.7247 11.3745 9.06278 3.223 
1 369 0.13921 17.8417 22.849 -4.72578 3.32241 -0.11661 
1 354 3.94057 15.3986 18.8251 -0.754582 -0.406414 -7.34341 
1 352 4.13544 13.1412 19.0866 -6.89046 -5.89269 3.7814 
1 407 11.3013 1.01923 2.00969 -7.4021 -2.54091 -12.2521 
1 394 7.99478 5.96165 1.97104 -1.15105 0.27258 6.47741 
1 387 9.44308 1.59268 3.38931 -0.276263 -0.66597 4.6062 
1 395 9.98293 6.14102 3.89018 10.7354 12.9459 9.86805 
1 409 13.6258 0.236884 1.6174 -5.66264 -11.7222 -6.03455 
1 418 11.5147 0.0504814 4.00647 8.07855 -1.08501 3.7778 
1 391 9.76615 3.7613 3.07837 5.63305 -6.04296 2.3122 
1 392 9.88607 2.5508 0.910324 7.5327 17.209 5.564 
1 411 11.6485 3.5253 1.79447 -5.60175 -0.735746 1.32048 
1 405 9.55526 4.71875 5.44817 5.46712 -0.544613 -2.32741 
1 424 12.384 4.97913 3.92111 -0.801966 1.78734 0.907992 
1 396 9.76763 4.82197 1.30925 -2.57717 -1.474 -6.08919 
1 421 11.8204 2.60885 3.75555 -11.4678 -0.32419 8.88887 
1 417 13.4517 4.70713 1.48673 5.43609 -2.47828 9.5392 
1 416 13.744 6.31715 2.96706 1.67538 -3.52215 -1.69341 
1 408 14.0139 1.13481 3.82685 -4.12698 5.51385 3.08479 
1 412 13.9351 3.54985 3.53807 0.340201 -3.4769 5.84404 
1 415 11.3989 5.928 2.19514 -6.68534 1.52861 0.895349 
1 413 13.5006 2.54766 1.58334 -0.310981 -10.6664 5.6823 
1 402 9.8826 2.33762 5.47877 -3.13195 8.69344 2.36583 
1 423 13.693 2.32356 5.65359 12.6396 6.17916 4.13577 
1 404 7.87758 5.8822 6.25037 -0.238135 6.24401 12.1847 
1 399 9.4904 0.0698316 5.45955 -4.29161 -8.67538 -10.0341 
1 426 13.8567 4.75869 5.7238 -11.3096 -2.60442 -4.86812 
1 386 7.79722 1.1616 1.90041 -3.10643 7.98761 0.0964878 
1 422 11.7151 3.88223 5.87632 -10.0666 4.87732 -0.370233 
1 406 11.7814 0.00809002 0.0692387 9.56325 0.0778437 2.65121 
1 425 11.4998 5.897 5.75608 -3.74438 -2.23546 10.0368 
1 397 8.16961 0.222091 3.74246 -3.21928 -0.392312 0.257937 
1 770 15.4982 1.23453 2.17984 -3.76811 2.61001 3.47116 
1 774 15.4329 3.48655 2.06555 13.9495 1.58826 -10.578 
1 419 11.8617 1.10471 6.05056 -2.11805 1.90741 -5.59333 
1 414 11.7514 4.75724 0.00120162 -3.1705 20.086 -4.94836 
1 427 9.7758 1.41367 7.3831 8.54855 1.17391 9.04114 
1 428 9.79966 3.91634 7.63286 -2.70928 -8.00311 18.4076 
1 434 7.85621 2.23412 8.50865 -6.48628 5.31536 12.1839 
1 453 11.4458 3.83621 10.1875 -4.43717 -7.88862 -0.0350932 
1 450 13.437 1.48492 11.7219 -0.240792 -2.00088 2.15315 
1 461 11.6816 2.27509 12.3178 1.91922 -5.62925 0.0861317 
1 454 13.6124 3.63953 11.4082 -3.01786 1.78051 0.832108 
1 449 11.7554 1.4909 10.1728 0.637472 4.19892 2.19428 
1 448 11.2945 0.107964 8.27126 -1.82864 8.33086 3.34545 
1 440 9.48751 5.96801 11.7809 0.506359 7.26405 -15.9485 
1 437 9.79232 2.35421 9.35212 2.61848 22.1767 -7.17126 
1 457 11.5749 6.10876 10.6714 -18.2932 -3.17931 10.3611 
1 459 13.9673 4.81584 9.54126 8.35159 -4.72006 15.3261 
1 826 15.4711 0.113644 12.3199 -1.13383 0.23263 5.30145 
1 441 9.78029 5.15639 9.54553 5.01746 -5.41214 7.15086 
1 455 13.6353 2.39119 9.70245 1.57253 -14.2189 6.84763 
1 432 9.71961 0.799619 11.4935 3.30413 -9.49621 4.47891 
1 456 12.0809 4.97093 8.2326 5.97383 -3.12267 -1.14356 
1 445 13.6026 0.946462 7.80799 -0.383836 0.806938 12.7191 
1 446 13.4742 3.45549 7.72075 -4.16033 1.26782 -6.61325 
1 439 7.75255 6.02583 10.2866 -21.329 1.66325 6.78937 
1 452 11.6382 2.32391 8.08403 -1.19012 6.92036 2.95374 
1 436 9.6136 3.58655 11.5239 7.69944 -12.0212 13.6265 
1 438 7.87888 4.79919 8.28846 6.62679 2.38079 -0.956744 
1 451 13.5089 -0.126494 9.64702 -5.94848 -7.65327 1.60951 
1 458 13.7238 5.88157 11.7607 0.0545137 4.77389 -0.838709 
1 429 9.70511 5.97069 7.39857 2.57507 1.03926 -4.2133 
1 443 7.83849 2.2542 12.3855 -11.4278 5.43157 2.99377 
1 828 15.6711 4.77176 12.4159 3.30978 -26.2342 7.95278 
1 818 15.4548 2.50531 8.60915 1.44893 -2.74058 -3.69256 
1 782 15.5668 0.974033 6.32518 4.85378 3.97784 -3.22434 
1 822 15.644 4.70233 8.3399 2.59896 7.73003 2.68711 
1 815 15.5361 1.08913 10.4465 -4.04392 -1.12503 -6.6137 
1 785 15.5838 3.4259 6.49477 2.41051 -2.21389 -1.02635 
1 488 13.6387 5.58705 15.9189 -1.07136 2.64808 -2.24421 
1 464 9.68654 1.11952 15.9941 7.71014 1.6205 -2.91548 
1 484 11.5388 3.82016 14.4801 6.48612 -0.137601 1.47761 
1 490 11.5081 0.181692 16.4378 -4.19888 -4.46059 5.77655 
1 467 9.79375 3.38483 15.577 -2.58529 6.66046 2.25615 
1 468 9.93441 2.25445 13.4711 -1.23316 -4.31863 -6.1031 
1 859 15.5838 2.41659 16.4342 9.61413 -9.09198 4.87355 
1 465 9.63821 0.191862 13.878 8.06774 -2.44708 4.65422 
1 471 9.4382 4.77838 13.7658 -2.14744 -4.58759 -8.10038 
1 489 13.177 4.39818 13.4298 -14.0462 -16.623 12.2651 
1 485 13.7332 3.44527 15.5926 -9.39888 0.765289 -2.79869 
1 473 8.01708 0.999612 18.5685 -1.73003 7.22309 0.737089 
1 496 11.6201 4.57825 16.5914 -3.5192 14.638 7.52332 
1 470 9.68274 5.95362 15.6752 1.57606 4.3594 -0.636301 
1 477 9.73938 2.18771 18.0296 -12.7968 16.353 2.65135 
1 486 13.5798 2.25719 13.7996 9.44334 0.104516 0.616365 
1 493 11.8077 2.31227 16.041 8.97206 -12.5317 -0.0230233 
1 495 13.2272 2.51229 17.7346 18.1542 2.24033 -0.00429727 
1 481 11.7078 1.20696 14.4583 -10.8259 16.6227 7.01675 
1 482 13.6881 1.24618 15.6327 -8.31913 3.27562 -3.03366 
1 498 13.623 4.57619 18.0274 5.08741 7.57722 -18.4007 
1 480 9.66274 4.69984 17.8359 5.54775 2.5982 -2.95276 
1 487 11.5724 6.19355 14.4022 -0.333682 0.766121 0.613246 
1 847 15.479 1.30399 14.5261 -7.80944 0.10902 16.2287 
1 850 15.4841 3.7917 14.3822 -6.0979 -2.94303 6.27789 
1 856 15.553 -0.0622817 16.4396 -6.05598 -6.28113 -6.57126 
1 853 15.5751 6.14561 14.3836 -2.58967 0.973525 -1.34578 
1 492 13.8712 -0.0158859 18.0045 9.81363 3.66161 4.02361 
1 483 13.5255 0.0795298 13.5412 14.2191 2.72887 0.747228 
1 497 11.5223 5.51772 18.5655 2.92357 -0.490715 -3.70529 
1 491 11.5889 1.05021 18.3473 6.01146 -0.33672 -2.05982 
1 462 11.5863 5.12415 12.3644 1.91179 -1.0676 -11.7052 
1 827 15.4461 2.31342 12.511 7.11019 4.92523 -8.10209 
1 499 9.79756 0.684956 20.2164 13.8321 -0.366246 -13.162 
1 500 9.64596 3.23504 20.2988 -2.81993 -8.27605 2.32771 
1 860 15.4882 3.73072 18.8215 -3.11894 8.9659 3.24703 
1 528 13.4731 4.5174 22.3827 -3.58874 7.03446 -2.92299 
1 527 13.7842 5.96554 24.364 -2.3303 -9.76311 -21.6701 
1 519 13.8527 1.33713 24.3745 -16.648 -7.00984 -8.91513 
1 525 11.8602 4.78732 20.7549 1.7303 -4.35908 -1.47878 
1 510 7.91278 4.73955 20.6023 -2.03823 -0.0420641 1.52984 
1 512 9.75183 5.78512 24.3154 5.0419 -3.67885 -4.98976 
1 524 13.6374 2.44921 22.5358 2.05395 7.65787 -0.564349 
1 509 10.0117 2.07377 22.4076 -7.60209 -1.17262 6.68339 
1 521 11.3263 1.77857 21.0091 0.784219 -9.00875 4.16049 
1 501 9.64882 5.84305 19.8206 7.28691 0.940217 -6.88379 
1 522 11.8252 3.36329 22.8627 -5.88652 -5.01052 0.187003 
1 513 9.89412 5.19999 22.0514 -1.86467 -3.561 2.71035 
1 514 13.0676 0.933605 20.0969 6.30905 1.23787 -4.32017 
1 515 13.5372 2.91136 20.0716 3.84794 11.8687 9.96006 
1 504 9.51179 0.989302 24.1003 -4.78419 -2.61453 -4.08561 
1 494 11.5341 3.11373 19.0738 6.75354 13.3246 -5.70498 
1 518 11.9146 0.818369 23.083 -1.07983 16.0546 4.83836 
1 895 15.3447 6.02877 22.6654 5.82139 1.80518 -11.9286 
1 508 9.84896 3.75449 24.0369 -7.12745 0.204404 0.361073 
1 890 15.4546 2.0864 21.0611 -3.07104 -0.957913 -0.680202 
1 526 11.4903 6.12853 22.9842 -5.8653 -6.11188 4.07867 
1 507 8.11755 3.13339 22.6111 8.26509 -5.68183 4.57298 
1 857 15.6137 1.23623 18.6538 -3.45922 0.109799 -9.70361 
1 523 14.0374 3.59654 24.4943 3.50565 19.7832 6.82557 
1 389 7.83426 2.3554 24.8365 8.58621 10.845 -0.528247 
1 506 7.82147 2.03116 20.5811 -1.1741 2.42379 1.76247 
1 894 15.1248 4.48227 20.692 -8.48735 -4.09448 -13.1327 
1 516 13.5918 6.02002 19.7471 0.347668 3.01572 -9.96807 
1 410 11.6881 2.38731 24.6704 -10.262 -17.6233 -9.44304 
1 476 7.96312 3.79332 18.8827 6.77773 -4.2382 -8.80731 
1 532 9.79913 7.29729 1.24704 15.3452 -6.40488 8.20838 
1 563 12.2227 11.9731 3.81633 -3.82702 2.01346 -3.07532 
1 531 9.38052 8.50491 3.51578 -8.85103 13.3693 -3.12678 
1 546 9.87413 11.8309 5.81647 0.992055 -19.647 -2.87737 
1 564 13.6316 11.9045 5.5765 4.79384 3.0376 4.86346 
1 552 11.5611 10.6242 1.93351 -3.04261 2.12407 7.92862 
1 535 9.79352 10.8092 3.34467 -2.92958 0.900777 2.54014 
1 536 9.44584 9.75011 1.2211 -0.538909 -10.8747 -10.8024 
1 538 9.67985 11.9933 1.27048 -10.7291 -10.217 -4.55183 
1 550 13.7522 7.36982 1.49994 -3.59605 1.01279 -9.51286 
1 553 13.8991 10.917 3.22038 -7.50673 10.2858 -10.4248 
1 560 11.3086 9.73797 4.05874 -8.21772 -3.13345 0.964483 