ITEM: TIMESTEP
0
ITEM: NUMBER OF ATOMS
1024
ITEM: BOX BOUNDS xy xz yz pp pp pp
0.0000000000000000e+00 2.1629280000000001e+01 0.0000000000000000e+00
0.0000000000000000e+00 2.1629280000000001e+01 0.0000000000000000e+00
0.0000000000000000e+00 2.1629280000000001e+01 0.0000000000000000e+00
ITEM: ATOMS type id x y z vx vy vz 
1 1 0 0 0 -1.61208 1.31578 1.7666 
1 2 1.35183 1.35183 1.35183 -1.85285 -1.94448 -1.7874 
1 3 2.70366 0 0 1.04058 0.328463 1.63351 
1 4 4.05549 1.35183 1.35183 1.11198 -0.669628 -1.21674 
1 5 5.40732 0 0 -0.935879 1.1521 1.91003 
1 6 6.75915 1.35183 1.35183 -1.40487 -0.645844 -1.85497 
1 7 0 2.70366 0 -0.9398 -1.32657 1.4362 
1 8 1.35183 4.05549 1.35183 -1.16605 1.64346 -1.04464 
1 9 2.70366 2.70366 0 1.69257 1.71918 -0.774886 
1 10 4.05549 4.05549 1.35183 0.500676 0.0396024 -1.20574 
1 11 5.40732 2.70366 0 1.61483 -0.663074 1.90337 
1 12 6.75915 4.05549 1.35183 1.76852 1.69978 -1.78595 
1 13 0 5.40732 0 1.66426 1.52768 -0.576888 
1 14 1.35183 6.75915 1.35183 -1.57532 0.764961 0.322006 
1 15 2.70366 5.40732 0 -1.0332 -1.2855 1.96124 
1 16 4.05549 6.75915 1.35183 -0.777207 0.113075 0.822349 
1 17 5.40732 5.40732 0 0.401376 -0.0129518 -0.491626 
1 18 6.75915 6.75915 1.35183 0.377985 -0.700401 0.88356 
1 19 0 0 2.70366 -1.49493 0.116224 -1.76386 
1 20 1.35183 1.35183 4.05549 0.252 -1.30044 0.652374 
1 21 2.70366 0 2.70366 1.74078 -0.661743 0.484564 
1 22 4.05549 1.35183 4.05549 -0.165018 -1.60624 -1.42658 
1 23 5.40732 0 2.70366 0.2008 -1.60341 -1.39689 
1 24 6.75915 1.35183 4.05549 -0.281266 -1.08214 -1.05935 
1 25 0 2.70366 2.70366 0.283582 -1.68771 0.909848 
1 26 1.35183 4.05549 4.05549 0.318801 -0.414406 -0.853365 
1 27 2.70366 2.70366 2.70366 1.5471 -1.29602 -0.386424 
1 28 4.05549 4.05549 4.05549 0.52435 1.52499 1.89737 
1 29 5.40732 2.70366 2.70366 0.0299474 0.838103 0.751498 
1 30 6.75915 4.05549 4.05549 -1.15817 -0.771229 -0.309497 
1 31 0 5.40732 2.70366 1.13963 0.16227 -0.867406 
1 32 1.35183 6.75915 4.05549 -0.552724 -0.812217 0.556189 
1 33 2.70366 5.40732 2.70366 -1.45155 -0.210993 0.870804 
1 34 4.05549 6.75915 4.05549 -1.81063 -1.92057 -0.246323 
1 35 5.40732 5.40732 2.70366 0.528965 -0.184588 0.678115 
1 36 6.75915 6.75915 4.05549 -1.68334 0.779459 -1.79754 
1 37 0 0 5.40732 1.10995 0.93156 1.6908 
1 38 1.35183 1.35183 6.75915 0.671868 -0.651948 -1.37889 
1 39 2.70366 0 5.40732 1.03548 1.89066 -0.681772 
1 40 4.05549 1.35183 6.75915 -0.340262 -1.61544 -1.49646 
1 41 5.40732 0 5.40732 -0.902151 1.14409 -1.87097 
1 42 6.75915 1.35183 6.75915 -0.209904 1.1327 0.875356 
1 43 0 2.70366 5.40732 -0.638718 0.780193 -1.35595 
1 44 1.35183 4.05549 6.75915 -1.89368 1.57634 0.64387 
1 45 2.70366 2.70366 5.40732 1.51834 -1.12208 1.5082 
1 46 4.05549 4.05549 6.75915 -0.134779 -0.788949 -0.82107 
1 47 5.40732 2.70366 5.40732 1.25097 0.513136 1.54099 
1 48 6.75915 4.05549 6.75915 0.074032 0.483663 1.70052 
1 49 0 5.40732 5.40732 1.57825 -1.09899 1.04266 
1 50 1.35183 6.75915 6.75915 0.677567 -0.00626891 0.832692 
1 51 2.70366 5.40732 5.40732 -0.183976 0.861963 1.38049 
1 52 4.05549 6.75915 6.75915 -1.98467 -1.44628 -0.691007 
1 53 5.40732 5.40732 5.40732 -0.958065 0.893384 -1.70457 
1 54 6.75915 6.75915 6.75915 1.71585 0.413995 0.192481 
1 55 0 0 8.11098 -1.66437 -1.49323 -0.834198 
1 56 1.35183 1.35183 9.46281 -1.36342 -1.55197 -1.00058 
1 57 2.70366 0 8.11098 0.876117 -0.743847 0.0807416 
1 58 4.05549 1.35183 9.46281 -0.690328 1.51187 -0.637934 
1 59 5.40732 0 8.11098 -0.886273 -1.55297 1.94677 
1 60 6.75915 1.35183 9.46281 1.67231 -1.88771 1.05591 
1 61 0 2.70366 8.11098 1.47575 0.568924 -0.32159 
1 62 1.35183 4.05549 9.46281 0.0681229 0.271463 -1.03364 
1 63 2.70366 2.70366 8.11098 0.255648 0.549437 1.18291 
1 64 4.05549 4.05549 9.46281 -0.747677 0.917195 -1.88998 
1 65 5.40732 2.70366 8.11098 1.41682 1.16717 1.53153 
1 66 6.75915 4.05549 9.46281 -0.352872 0.511784 -1.3589 
1 67 0 5.40732 8.11098 0.117021 1.53478 -0.129548 
1 68 1.35183 6.75915 9.46281 0.942629 -0.756647 -0.991336 
1 69 2.70366 5.40732 8.11098 1.66797 0.422007 0.074224 
1 70 4.05549 6.75915 9.46281 0.763749 1.54509 -1.27021 
1 71 5.40732 5.40732 8.11098 0.252243 -1.18237 -0.89114 
1 72 6.75915 6.75915 9.46281 0.918984 -1.74906 0.406597 
1 73 0 0 10.8146 1.54262 -1.27501 -0.0764903 
1 74 1.35183 1.35183 12.1665 0.762843 -1.77563 1.85308 
1 75 2.70366 0 10.8146 0.855716 1.25381 -1.20312 
1 76 4.05549 1.35183 12.1665 -1.98199 -0.0158957 1.56316 
1 77 5.40732 0 10.8146 0.000260185 1.36115 -0.715532 
1 78 6.75915 1.35183 12.1665 -0.882752 -1.82436 -0.554143 
1 79 0 2.70366 10.8146 0.141973 0.705562 0.952438 
1 80 1.35183 4.05549 12.1665 -1.36398 0.850552 -0.123079 
1 81 2.70366 2.70366 10.8146 -1.32773 -0.356764 0.70477 
1 82 4.05549 4.05549 12.1665 -1.62551 1.4833 -1.1913 
1 83 5.40732 2.70366 10.8146 -1.61811 -1.00993 -0.492983 
1 84 6.75915 4.05549 12.1665 1.35563 -0.619471 1.38427 
1 85 0 5.40732 10.8146 -1.87362 1.77743 -1.00976 
1 86 1.35183 6.75915 12.1665 1.17332 -0.439112 0.14127 
1 87 2.70366 5.40732 10.8146 1.80217 0.401748 0.487144 
1 88 4.05549 6.75915 12.1665 -0.410758 -1.1777 -1.78884 
1 89 5.40732 5.40732 10.8146 0.54161 -1.73529 -1.96984 
1 90 6.75915 6.75915 12.1665 -1.06256 0.766952 -1.89952 
1 91 0 0 13.5183 -0.365417 -0.231036 0.953216 
1 92 1.35183 1.35183 14.8701 -0.187489 1.28428 -0.354872 
1 93 2.70366 0 13.5183 -0.375471 1.24415 -0.933953 
1 94 4.05549 1.35183 14.8701 -1.14515 0.104582 0.780003 
1 95 5.40732 0 13.5183 -1.73633 -1.8082 1.37801 
1 96 6.75915 1.35183 14.8701 0.0608032 0.135335 -1.65775 
1 97 0 2.70366 13.5183 -0.132825 0.341229 -1.83565 
1 98 1.35183 4.05549 14.8701 -1.2363 -1.66412 0.971218 
1 99 2.70366 2.70366 13.5183 1.105 0.837852 0.485066 
1 100 4.05549 4.05549 14.8701 0.331021 -1.15709 -0.27239 
1 101 5.40732 2.70366 13.5183 -1.52924 -1.79443 -1.06922 
1 102 6.75915 4.05549 14.8701 0.748858 1.02238 1.91197 
1 103 0 5.40732 13.5183 -0.368514 -0.749759 -0.181905 
1 104 1.35183 6.75915 14.8701 1.01353 1.7184 1.9416 
1 105 2.70366 5.40732 13.5183 -1.8541 0.876322 0.909806 
1 106 4.05549 6.75915 14.8701 -0.392435 1.5526 -1.85236 
1 107 5.40732 5.40732 13.5183 -0.650089 -0.0628627 1.04324 
1 108 6.75915 6.75915 14.8701 -1.44908 1.62951 -1.5518 
1 109 0 0 16.222 0.685452 1.68988 -1.70755 
1 110 1.35183 1.35183 17.5738 -0.6847 0.950638 1.24449 
1 111 2.70366 0 16.222 -0.354567 -0.232673 1.19028 
1 112 4.05549 1.35183 17.5738 0.225056 1.73156 1.08752 
1 113 5.40732 0 16.222 1.46431 -1.35875 -0.146546 
1 114 6.75915 1.35183 17.5738 0.663103 -1.29514 -1.41621 
1 115 0 2.70366 16.222 0.163434 0.666678 1.49322 
1 116 1.35183 4.05549 17.5738 1.86437 -0.766774 -0.746576 
1 117 2.70366 2.70366 16.222 0.618499 -1.75294 -1.3601 
1 118 4.05549 4.05549 17.5738 -0.276219 0.496091 0.476053 
1 119 5.40732 2.70366 16.222 -0.506657 0.438009 -0.544263 
1 120 6.75915 4.05549 17.5738 -0.299384 -0.35691 -1.74749 
1 121 0 5.40732 16.222 1.7781 0.248555 -1.51786 
1 122 1.35183 6.75915 17.5738 0.28169 -1.76693 1.30037 
1 123 2.70366 5.40732 16.222 -0.641543 0.863866 1.65948 
1 124 4.05549 6.75915 17.5738 1.47718 0.872436 -0.985394 
1 125 5.40732 5.40732 16.222 -1.53547 0.480482 -0.22494 
1 126 6.75915 6.75915 17.5738 -0.817165 -1.53167 -0.794378 
1 127 0 0 18.9256 1.92417 1.42322 -0.106099 
1 128 1.35183 1.35183 20.2775 -1.36425 0.279056 -0.263407 
1 129 2.70366 0 18.9256 -1.1869 0.0500058 -0.775843 
1 130 4.05549 1.35183 20.2775 0.280082 -1.05619 -0.986828 
1 131 5.40732 0 18.9256 -1.85102 0.998956 0.685476 
1 132 6.75915 1.35183 20.2775 -0.852761 -1.2054 0.452204 
1 133 0 2.70366 18.9256 -0.962963 1.81681 -1.06152 
1 134 1.35183 4.05549 20.2775 -0.52583 -0.707269 0.402615 
1 135 2.70366 2.70366 18.9256 -1.94211 0.203896 1.0765 
1 136 4.05549 4.05549 20.2775 -1.33404 0.715582 -1.09794 
1 137 5.40732 2.70366 18.9256 1.67043 -1.84935 -0.423751 
1 138 6.75915 4.05549 20.2775 -0.498723 -0.991093 -1.02826 
1 139 0 5.40732 18.9256 -0.575338 -0.33853 1.92428 
1 140 1.35183 6.75915 20.2775 0.310184 1.43177 0.93511 
1 141 2.70366 5.40732 18.9256 0.736295 -0.0308097 0.64042 
1 142 4.05549 6.75915 20.2775 -0.97288 1.63222 0.371941 
1 143 5.40732 5.40732 18.9256 1.80552 1.20462 0.561498 
1 144 6.75915 6.75915 20.2775 0.560457 1.87604 -0.583627 
1 145 0 8.11098 0 0.114705 -1.71079 1.35323 
1 146 1.35183 9.46281 1.35183 -0.168414 0.776238 -0.430713 
1 147 2.70366 8.11098 0 1.41304 0.983903 1.39993 
1 148 4.05549 9.46281 1.35183 -0.229111 -0.579054 -1.14478 
1 149 5.40732 8.11098 0 -0.686209 -0.612342 -1.69129 
1 150 6.75915 9.46281 1.35183 -0.945729 -1.87176 -0.485643 
1 151 0 10.8146 0 1.82459 0.549268 -1.66057 
1 152 1.35183 12.1665 1.35183 -0.085264 -1.04343 -0.54433 
1 153 2.70366 10.8146 0 -1.41992 0.111518 -1.56129 
1 154 4.05549 12.1665 1.35183 -0.304887 -1.68228 0.987878 
1 155 5.40732 10.8146 0 -0.34245 1.26225 -1.98025 
1 156 6.75915 12.1665 1.35183 -1.58506 -0.436494 0.547446 
1 157 0 13.5183 0 -1.71934 -1.80526 -0.697341 
1 158 2.70366 13.5183 0 -0.392162 -1.79274 -0.395751 
1 159 5.40732 13.5183 0 -1.63565 1.60815 0.163246 
1 160 0 8.11098 2.70366 -1.47236 -1.18669 1.85487 
1 161 1.35183 9.46281 4.05549 -0.792437 1.81083 1.3701 
1 162 2.70366 8.11098 2.70366 1.80567 -0.206751 0.802301 
1 163 4.05549 9.46281 4.05549 0.407901 -1.32891 1.87832 
1 164 5.40732 8.11098 2.70366 0.831454 1.76994 0.0362394 
1 165 6.75915 9.46281 4.05549 0.575125 -1.33991 -0.690607 
1 166 0 10.8146 2.70366 1.80354 -0.365301 -0.075399 
1 167 1.35183 12.1665 4.05549 -0.717514 0.457984 -1.76924 
1 168 2.70366 10.8146 2.70366 0.956747 -1.31335 1.66291 
1 169 4.05549 12.1665 4.05549 -0.297741 -0.501986 1.84188 
1 170 5.40732 10.8146 2.70366 -1.16742 -1.5996 -0.761721 
1 171 6.75915 12.1665 4.05549 -0.231236 -0.622689 -1.16637 
1 172 0 13.5183 2.70366 1.20946 0.540645 0.0913534 
1 173 2.70366 13.5183 2.70366 -0.722022 0.0129755 -0.781908 
1 174 5.40732 13.5183 2.70366 1.40318 1.79346 -1.14306 
1 175 0 8.11098 5.40732 0.583771 1.27269 -1.01224 
1 176 1.35183 9.46281 6.75915 -0.846848 -0.931431 -1.20689 
1 177 2.70366 8.11098 5.40732 -1.9784 0.851842 1.72995 
1 178 4.05549 9.46281 6.75915 0.692251 1.00868 1.61755 
1 179 5.40732 8.11098 5.40732 -1.64354 -0.206142 -0.847936 
1 180 6.75915 9.46281 6.75915 1.62458 0.549302 -1.09177 
1 181 0 10.8146 5.40732 -1.61617 0.0188605 -0.97436 
1 182 1.35183 12.1665 6.75915 1.5711 1.68813 0.484156 
1 183 2.70366 10.8146 5.40732 0.907011 -0.80897 -0.36168 
1 184 4.05549 12.1665 6.75915 0.161342 1.18204 1.66138 
1 185 5.40732 10.8146 5.40732 1.76489 0.220027 -1.34206 
1 186 6.75915 12.1665 6.75915 1.66126 -1.25605 1.45334 
1 187 0 13.5183 5.40732 1.53273 -1.04807 0.757437 
1 188 2.70366 13.5183 5.40732 -0.455259 0.112476 -1.32816 
1 189 5.40732 13.5183 5.40732 1.3509 -0.852484 1.65768 
1 190 0 8.11098 8.11098 -1.06117 0.337604 0.664911 
1 191 1.35183 9.46281 9.46281 -1.60797 -0.9473 1.65218 
1 192 2.70366 8.11098 8.11098 1.69731 -1.93818 1.06768 
1 193 4.05549 9.46281 9.46281 0.949779 0.499159 0.508716 
1 194 5.40732 8.11098 8.11098 1.41127 -1.03488 0.32336 
1 195 6.75915 9.46281 9.46281 1.90612 -0.597004 -1.56995 
1 196 0 10.8146 8.11098 0.832135 1.33205 1.65784 
1 197 1.35183 12.1665 9.46281 1.61761 -1.64928 0.609174 
1 198 2.70366 10.8146 8.11098 1.11533 0.0609555 0.906869 
1 199 4.05549 12.1665 9.46281 1.77795 1.61013 1.73707 
1 200 5.40732 10.8146 8.11098 1.43898 0.908962 -1.52395 
1 201 6.75915 12.1665 9.46281 0.903246 -0.661024 0.685742 
1 202 0 13.5183 8.11098 -0.33956 -1.69736 1.17396 
1 203 2.70366 13.5183 8.11098 -0.591177 -0.942722 -0.685027 
1 204 5.40732 13.5183 8.11098 0.440572 0.726205 -0.941972 
1 205 0 8.11098 10.8146 -1.12837 0.609474 -0.613251 
1 206 1.35183 9.46281 12.1665 1.69423 1.80226 0.15416 
1 207 2.70366 8.11098 10.8146 0.4154 1.81095 -0.567476 
1 208 4.05549 9.46281 12.1665 -1.96687 0.346817 0.907815 
1 209 5.40732 8.11098 10.8146 1.81891 0.312429 1.69728 
1 210 6.75915 9.46281 12.1665 -1.37533 0.347742 0.591065 
1 211 0 10.8146 10.8146 -1.97893 -0.240177 1.91146 
1 212 1.35183 12.1665 12.1665 -1.1685 0.0866096 -0.00948154 
1 213 2.70366 10.8146 10.8146 1.1764 -0.154376 1.04648 
1 214 4.05549 12.1665 12.1665 1.49172 -0.584549 1.63743 
1 215 5.40732 10.8146 10.8146 -0.478855 -0.058659 0.340628 
1 216 6.75915 12.1665 12.1665 -1.21597 -1.0182 -0.814771 
1 217 0 13.5183 10.8146 0.0779215 -1.5359 -0.545405 
1 218 2.70366 13.5183 10.8146 0.321318 -1.72069 1.60578 
1 219 5.40732 13.5183 10.8146 -1.2425 1.04226 -0.97514 
1 220 0 8.11098 13.5183 0.344538 0.0572772 -1.45237 
1 221 1.35183 9.46281 14.8701 -1.08112 -1.95925 -0.309096 
1 222 2.70366 8.11098 13.5183 -0.0415778 -0.165161 -1.83372 
1 223 4.05549 9.46281 14.8701 -0.472888 1.1279 -0.588925 
1 224 5.40732 8.11098 13.5183 -1.71388 -1.21561 -0.606745 
1 225 6.75915 9.46281 14.8701 0.045196 -0.543848 -0.100909 
1 226 0 10.8146 13.5183 -1.34718 1.79981 -1.45394 
1 227 1.35183 12.1665 14.8701 0.25964 0.26414 -1.21224 
1 228 2.70366 10.8146 13.5183 -0.666686 -1.51857 1.4027 
1 229 4.05549 12.1665 14.8701 -1.22267 1.39928 1.85509 
1 230 5.40732 10.8146 13.5183 -1.13613 1.02668 -1.15474 
1 231 6.75915 12.1665 14.8701 -1.4562 0.874533 -1.40868 
1 232 0 13.5183 13.5183 -0.101527 -0.860609 -0.127199 
1 233 2.70366 13.5183 13.5183 0.78187 0.877755 1.19985 
1 234 5.40732 13.5183 13.5183 -1.4027 0.215751 -1.85803 
1 235 0 8.11098 16.222 -0.71738 -1.24781 1.27176 
1 236 1.35183 9.46281 17.5738 -1.9489 1.07205 0.315034 
1 237 2.70366 8.11098 16.222 0.725518 1.1814 -1.16447 
1 238 4.05549 9.46281 17.5738 1.46742 -0.685521 1.21922 
1 239 5.40732 8.11098 16.222 -0.876831 -1.42142 0.968282 
1 240 6.75915 9.46281 17.5738 -0.670006 -1.81096 -1.35627 
1 241 0 10.8146 16.222 0.699789 0.84002 1.2529 
1 242 1.35183 12.1665 17.5738 -1.6826 1.28806 -0.354956 
1 243 2.70366 10.8146 16.222 -1.78324 -1.36689 1.6542 
1 244 4.05549 12.1665 17.5738 0.0108354 0.714399 -1.17048 
1 245 5.40732 10.8146 16.222 -0.533246 1.50026 -1.60977 
1 246 6.75915 12.1665 17.5738 1.54795 0.966731 -1.8056 
1 247 0 13.5183 16.222 0.328812 1.35569 -1.34074 
1 248 2.70366 13.5183 16.222 0.048178 -1.95925 -0.269136 
1 249 5.40732 13.5183 16.222 1.626 0.705571 1.10514 
1 250 0 8.11098 18.9256 0.336587 1.20493 1.76363 
1 251 1.35183 9.46281 20.2775 -0.216428 -1.47815 -1.0648 
1 252 2.70366 8.11098 18.9256 -0.15033 -0.510997 1.02238 
1 253 4.05549 9.46281 20.2775 0.749343 1.23923 -0.447659 
1 254 5.40732 8.11098 18.9256 -1.95864 -0.0717616 -1.84904 
1 255 6.75915 9.46281 20.2775 -0.298811 1.34325 -0.3286 
1 256 0 10.8146 18.9256 1.16338 -0.970434 1.31183 
1 257 1.35183 12.1665 20.2775 1.57636 -1.15048 -0.173134 
1 258 2.70366 10.8146 18.9256 1.7435 1.40368 0.546531 
1 259 4.05549 12.1665 20.2775 -1.24685 -0.704203 0.405153 
1 260 5.40732 10.8146 18.9256 1.0731 -0.0510985 0.559555 
1 261 6.75915 12.1665 20.2775 -0.385095 -1.94011 0.346833 
1 262 0 13.5183 18.9256 0.0202768 0.832423 0.425805 
1 263 2.70366 13.5183 18.9256 -0.671212 1.69015 -1.19363 
1 264 5.40732 13.5183 18.9256 -1.07609 -0.789618 -0.171713 
1 265 1.35183 14.8701 1.35183 1.85547 0.286767 -1.48225 
1 266 4.05549 14.8701 1.35183 0.127949 -1.10425 -0.0889673 
1 267 6.75915 14.8701 1.35183 1.15853 0.703817 -0.63759 
1 268 0 16.222 0 0.937773 0.86719 -1.94539 
1 269 1.35183 17.5738 1.35183 1.58971 1.22483 -0.69417 
1 270 2.70366 16.222 0 1.36838 -0.407702 0.838096 
1 271 4.05549 17.5738 1.35183 -0.528406 -0.394144 -1.21485 
1 272 5.40732 16.222 0 -0.887088 0.60868 1.88402 
1 273 6.75915 17.5738 1.35183 1.53552 -1.75009 -0.988117 
1 274 0 18.9256 0 0.258174 -0.593964 1.95092 
1 275 1.35183 20.2775 1.35183 0.141161 -1.05273 1.59638 
1 276 2.70366 18.9256 0 -0.603407 -0.363037 -1.66058 
1 277 4.05549 20.2775 1.35183 -0.250407 -1.7397 -0.889721 
1 278 5.40732 18.9256 0 0.979729 0.428627 0.34247 
1 279 6.75915 20.2775 1.35183 -1.96383 -0.0843044 1.40503 
1 280 1.35183 14.8701 4.05549 -1.81029 -0.25028 -1.39891 
1 281 4.05549 14.8701 4.05549 1.47309 -0.544889 -1.73699 
1 282 6.75915 14.8701 4.05549 -0.110435 0.0651108 -0.607932 
1 283 0 16.222 2.70366 -0.0810163 -1.0048 -1.49714 
1 284 1.35183 17.5738 4.05549 -0.411329 1.12188 1.29911 
1 285 2.70366 16.222 2.70366 1.91155 -0.559895 -0.242583 
1 286 4.05549 17.5738 4.05549 -0.0417821 0.36561 -0.364327 
1 287 5.40732 16.222 2.70366 -0.722549 -0.920943 0.654499 
1 288 6.75915 17.5738 4.05549 1.78104 -1.97851 1.12203 
1 289 0 18.9256 2.70366 -1.28972 0.29127 -1.12129 
1 290 1.35183 20.2775 4.05549 1.77329 -1.29229 -1.14717 
1 291 2.70366 18.9256 2.70366 -1.05581 -0.813678 -0.207694 
1 292 4.05549 20.2775 4.05549 -0.348675 -0.301554 1.0213 
1 293 5.40732 18.9256 2.70366 -1.56106 -1.38436 1.45796 
1 294 6.75915 20.2775 4.05549 -0.163696 0.793042 0.537251 
1 295 1.35183 14.8701 6.75915 1.33993 1.1046 0.300537 
1 296 4.05549 14.8701 6.75915 -1.12083 0.508167 1.27584 
1 297 6.75915 14.8701 6.75915 -0.647359 -1.74017 -0.78916 
1 298 0 16.222 5.40732 -1.56378 0.425391 1.44633 
1 299 1.35183 17.5738 6.75915 -1.32099 1.90763 -0.941296 
1 300 2.70366 16.222 5.40732 -1.6612 0.2267 -0.174446 
1 301 4.05549 17.5738 6.75915 -0.4759 -1.92342 -0.593951 
1 302 5.40732 16.222 5.40732 1.01399 1.50079 -0.636788 
1 303 6.75915 17.5738 6.75915 -1.45001 1.80625 -0.251481 
1 304 0 18.9256 5.40732 1.05246 1.91951 0.549136 
1 305 1.35183 20.2775 6.75915 -1.06895 0.312989 -0.786892 
1 306 2.70366 18.9256 5.40732 0.888872 -0.434195 -0.458605 
1 307 4.05549 20.2775 6.75915 0.396394 -0.496513 -1.3162 
1 308 5.40732 18.9256 5.40732 0.288942 1.18259 -0.995318 
1 309 6.75915 20.2775 6.75915 -1.84426 -0.249527 -0.621301 
1 310 1.35183 14.8701 9.46281 1.18796 -0.053741 -0.248575 
1 311 4.05549 14.8701 9.46281 -1.63469 1.76313 0.456617 
1 312 6.75915 14.8701 9.46281 1.85558 -1.86342 0.974928 
1 313 0 16.222 8.11098 0.0342889 -1.51151 1.10847 
1 314 1.35183 17.5738 9.46281 0.709582 -1.04999 0.0894292 
1 315 2.70366 16.222 8.11098 -1.34967 -0.363475 -1.08929 
1 316 4.05549 17.5738 9.46281 0.467974 1.42656 0.604411 
1 317 5.40732 16.222 8.11098 0.343326 -0.482212 1.19898 
1 318 6.75915 17.5738 9.46281 -0.172219 0.251419 -0.95678 
1 319 0 18.9256 8.11098 -0.282689 -1.21411 0.684399 
1 320 1.35183 20.2775 9.46281 0.863755 1.57811 -1.20678 
1 321 2.70366 18.9256 8.11098 -0.0935679 -1.8626 -1.084 
1 322 4.05549 20.2775 9.46281 -1.79932 1.83311 -0.652107 
1 323 5.40732 18.9256 8.11098 -1.24091 0.0639867 0.319663 
1 324 6.75915 20.2775 9.46281 -0.76376 0.159686 -0.684056 
1 325 1.35183 14.8701 12.1665 0.911626 1.44368 -1.15388 
1 326 4.05549 14.8701 12.1665 1.07895 -0.933999 -0.753009 
1 327 6.75915 14.8701 12.1665 -0.476337 -1.33835 1.72108 
1 328 0 16.222 10.8146 -1.81042 1.57046 0.901721 
1 329 1.35183 17.5738 12.1665 -1.49716 -1.74606 -0.775162 
1 330 2.70366 16.222 10.8146 -0.167307 -0.427847 -0.797533 
1 331 4.05549 17.5738 12.1665 0.428395 -1.77149 -0.00872679 
1 332 5.40732 16.222 10.8146 -1.99491 0.836851 -0.480084 
1 333 6.75915 17.5738 12.1665 0.125654 -0.0348781 -0.347031 
1 334 0 18.9256 10.8146 0.604791 1.73858 0.179462 
1 335 1.35183 20.2775 12.1665 1.51307 1.53836 0.494554 
1 336 2.70366 18.9256 10.8146 1.24321 0.852654 -0.469669 
1 337 4.05549 20.2775 12.1665 0.746068 1.69682 -0.0571966 
1 338 5.40732 18.9256 10.8146 -0.0240556 0.987475 1.96952 
1 339 6.75915 20.2775 12.1665 -0.372087 -1.34246 -0.021693 
1 340 1.35183 14.8701 14.8701 -1.89367 1.80694 -0.464572 
1 341 4.05549 14.8701 14.8701 -0.803191 -0.541616 1.74159 
1 342 6.75915 14.8701 14.8701 1.94095 1.91707 -0.81536 
1 343 0 16.222 13.5183 -1.87993 -1.18232 -0.159832 
1 344 1.35183 17.5738 14.8701 -0.631998 -1.23906 1.59943 
1 345 2.70366 16.222 13.5183 -0.878166 -0.0622369 -0.331407 
1 346 4.05549 17.5738 14.8701 1.55212 -0.289574 0.191902 
1 347 5.40732 16.222 13.5183 0.502796 -0.00390994 0.838938 
1 348 6.75915 17.5738 14.8701 1.71964 0.767652 1.93165 
1 349 0 18.9256 13.5183 1.32142 -0.772934 -1.21612 
1 350 1.35183 20.2775 14.8701 1.51641 -1.90606 1.84959 
1 351 2.70366 18.9256 13.5183 1.55884 1.69283 0.341743 
1 352 4.05549 20.2775 14.8701 1.66912 0.0434825 0.581654 
1 353 5.40732 18.9256 13.5183 -1.5781 1.48532 1.03227 
1 354 6.75915 20.2775 14.8701 0.484143 -0.332387 -1.85126 
1 355 1.35183 14.8701 17.5738 -1.92659 -0.466143 1.71233 
1 356 4.05549 14.8701 17.5738 1.78365 -1.67689 0.445357 
1 357 6.75915 14.8701 17.5738 -1.07838 0.490472 1.17432 
1 358 0 16.222 16.222 1.58456 1.92287 1.53517 
1 359 1.35183 17.5738 17.5738 1.38029 1.65612 1.75302 
1 360 2.70366 16.222 16.222 -0.0553615 -1.91144 -1.41953 
1 361 4.05549 17.5738 17.5738 -0.176087 -1.32286 0.385192 
1 362 5.40732 16.222 16.222 -1.42833 1.51122 0.296538 
1 363 6.75915 17.5738 17.5738 -0.946664 -1.72816 -1.09744 
1 364 0 18.9256 16.222 -1.71892 1.41973 0.614305 
1 365 1.35183 20.2775 17.5738 0.131395 1.31717 1.2793 
1 366 2.70366 18.9256 16.222 1.8509 -1.08901 -1.54612 
1 367 4.05549 20.2775 17.5738 0.910253 -1.8133 -1.11066 
1 368 5.40732 18.9256 16.222 -1.90244 0.95021 -1.98682 
1 369 6.75915 20.2775 17.5738 -1.00702 -1.32502 -0.19377 
1 370 1.35183 14.8701 20.2775 -0.199384 -0.437621 1.41771 
1 371 4.05549 14.8701 20.2775 1.23761 1.90165 1.75908 
1 372 6.75915 14.8701 20.2775 -1.26474 -0.0302953 1.35934 
1 373 0 16.222 18.9256 -0.652687 -0.112785 -1.58585 
1 374 1.35183 17.5738 20.2775 -0.764622 1.54337 1.46684 
1 375 2.70366 16.222 18.9256 -1.44133 1.14244 -1.8947 
1 376 4.05549 17.5738 20.2775 1.36552 -0.871175 0.680541 
1 377 5.40732 16.222 18.9256 -0.548673 -0.121795 1.58378 
1 378 6.75915 17.5738 20.2775 1.7507 -0.479788 -1.66525 
1 379 0 18.9256 18.9256 0.570046 0.504392 1.24801 
1 380 1.35183 20.2775 20.2775 -0.761842 0.693327 1.43858 
1 381 2.70366 18.9256 18.9256 -0.700114 -0.435225 -1.91568 
1 382 4.05549 20.2775 20.2775 1.52626 1.10937 1.16009 
1 383 5.40732 18.9256 18.9256 0.21372 1.4775 0.493454 
1 384 6.75915 20.2775 20.2775 -1.39301 0.56847 -0.019246 
1 385 8.11098 0 0 -0.407027 -1.88421 0.309884 
1 386 9.46281 1.35183 1.35183 1.36669 -0.984502 -1.24989 
1 387 10.8146 0 0 0.733819 1.96431 0.296161 
1 388 12.1665 1.35183 1.35183 0.647196 0.914778 1.08343 
1 389 13.5183 0 0 0.204718 0.81561 -0.71363 
1 390 8.11098 2.70366 0 -0.635187 0.655272 0.0671851 
1 391 9.46281 4.05549 1.35183 1.38334 1.34429 1.30993 
1 392 10.8146 2.70366 0 1.47852 -0.453425 1.39088 
1 393 12.1665 4.05549 1.35183 -1.69581 1.29887 -1.01195 
1 394 13.5183 2.70366 0 0.022669 1.39705 0.0187968 
1 395 8.11098 5.40732 0 0.759022 1.38933 1.10057 
1 396 9.46281 6.75915 1.35183 -1.08681 1.49582 -0.840075 
1 397 10.8146 5.40732 0 -1.03629 -1.69794 -0.567404 
1 398 12.1665 6.75915 1.35183 -0.750214 1.87656 0.187599 
1 399 13.5183 5.40732 0 -0.466097 0.312359 0.521735 
1 400 8.11098 0 2.70366 -1.76512 1.76981 1.73213 
1 401 9.46281 1.35183 4.05549 1.65458 1.41472 -0.338377 
1 402 10.8146 0 2.70366 -0.625367 -0.785941 -1.78746 
1 403 12.1665 1.35183 4.05549 0.0774834 -0.970004 0.618638 
1 404 13.5183 0 2.70366 1.60335 0.545957 -1.81143 
1 405 8.11098 2.70366 2.70366 1.41871 1.16239 0.331024 
1 406 9.46281 4.05549 4.05549 -0.102943 -0.863836 1.14807 
1 407 10.8146 2.70366 2.70366 0.418934 1.75738 -0.980061 
1 408 12.1665 4.05549 4.05549 0.882984 -0.300256 -0.944722 
1 409 13.5183 2.70366 2.70366 0.217748 1.78428 -0.842692 
1 410 8.11098 5.40732 2.70366 -1.42314 1.61761 0.617327 
1 411 9.46281 6.75915 4.05549 -0.600229 1.51701 -1.52994 
1 412 10.8146 5.40732 2.70366 -0.635094 -1.74119 1.94179 
1 413 12.1665 6.75915 4.05549 1.30931 1.8696 -1.87823 
1 414 13.5183 5.40732 2.70366 0.64101 0.0120093 -1.16485 
1 415 8.11098 0 5.40732 -1.02948 1.68473 -1.10521 
1 416 9.46281 1.35183 6.75915 -1.60315 0.794401 -0.400712 
1 417 10.8146 0 5.40732 -1.76627 -1.69843 -0.852818 
1 418 12.1665 1.35183 6.75915 -1.15955 -0.0524857 1.02868 
1 419 13.5183 0 5.40732 -0.446419 -1.94219 1.02135 
1 420 8.11098 2.70366 5.40732 -0.648567 1.74499 0.917796 
1 421 9.46281 4.05549 6.75915 -0.886429 -0.198034 0.646613 
1 422 10.8146 2.70366 5.40732 0.0565609 0.189101 -1.81673 
1 423 12.1665 4.05549 6.75915 -0.377741 -1.22373 1.57052 
1 424 13.5183 2.70366 5.40732 0.751014 1.56951 0.850427 
1 425 8.11098 5.40732 5.40732 0.5851 -0.18633 -0.856597 
1 426 9.46281 6.75915 6.75915 -1.23727 1.76448 -0.554873 
1 427 10.8146 5.40732 5.40732 -0.23803 0.151461 -0.181649 
1 428 12.1665 6.75915 6.75915 1.3499 -1.80764 -1.10386 
1 429 13.5183 5.40732 5.40732 1.26975 -0.984367 1.01927 
1 430 8.11098 0 8.11098 -0.0377413 0.889524 0.808714 
1 431 9.46281 1.35183 9.46281 1.15663 0.493978 0.648472 
1 432 10.8146 0 8.11098 -0.412664 -1.48983 0.76538 
1 433 12.1665 1.35183 9.46281 -1.72353 -0.800068 -1.37424 
1 434 13.5183 0 8.11098 -0.0487436 -1.67853 0.524413 
1 435 8.11098 2.70366 8.11098 -0.356455 -0.243179 -0.971274 
1 436 9.46281 4.05549 9.46281 1.90396 -1.31086 -0.0488584 
1 437 10.8146 2.70366 8.11098 1.37298 1.61769 1.97127 
1 438 12.1665 4.05549 9.46281 1.1464 -0.972974 -1.72653 
1 439 13.5183 2.70366 8.11098 1.32716 0.628748 -1.72857 
1 440 8.11098 5.40732 8.11098 -1.32638 -1.40297 1.81897 
1 441 9.46281 6.75915 9.46281 -1.6813 -0.583027 -0.535872 
1 442 10.8146 5.40732 8.11098 -1.97502 -1.80678 1.45613 
1 443 12.1665 6.75915 9.46281 0.895303 0.622139 -1.81821 
1 444 13.5183 5.40732 8.11098 -1.52015 0.305071 0.922857 
1 445 8.11098 0 10.8146 0.940119 0.65735 -0.678783 
1 446 9.46281 1.35183 12.1665 -1.64047 -0.198795 -0.25733 
1 447 10.8146 0 10.8146 1.84061 0.392176 -1.81202 
1 448 12.1665 1.35183 12.1665 -0.550869 -1.34327 -1.73643 
1 449 13.5183 0 10.8146 1.44211 -1.91241 -1.89704 
1 450 8.11098 2.70366 10.8146 1.64402 -1.76863 0.559392 
1 451 9.46281 4.05549 12.1665 0.846177 -0.503549 -0.645818 
1 452 10.8146 2.70366 10.8146 1.38582 -0.49505 -0.521164 
1 453 12.1665 4.05549 12.1665 -0.560471 -0.202507 0.775712 
1 454 13.5183 2.70366 10.8146 1.46714 -1.43972 -1.40276 
1 455 8.11098 5.40732 10.8146 0.216404 -0.977493 1.60346 
1 456 9.46281 6.75915 12.1665 -0.550823 -0.567694 -0.495012 
1 457 10.8146 5.40732 10.8146 -1.02574 1.23764 0.67236 
1 458 12.1665 6.75915 12.1665 0.695404 -1.49764 0.317808 
1 459 13.5183 5.40732 10.8146 -0.22076 1.03335 0.0218743 
1 460 8.11098 0 13.5183 0.94932 0.70483 0.54197 
1 461 9.46281 1.35183 14.8701 1.37168 -0.301082 1.02724 
1 462 10.8146 0 13.5183 -0.725173 -1.40859 -1.44599 
1 463 12.1665 1.35183 14.8701 -0.846466 1.52399 0.918047 
1 464 13.5183 0 13.5183 -0.622447 0.72498 -1.71393 
1 465 8.11098 2.70366 13.5183 -0.905608 -1.45739 -1.04044 
1 466 9.46281 4.05549 14.8701 0.9478 -1.05984 1.06621 
1 467 10.8146 2.70366 13.5183 0.0265544 -0.689529 1.25484 
1 468 12.1665 4.05549 14.8701 -0.924034 -1.94493 -1.41733 
1 469 13.5183 2.70366 13.5183 1.14811 0.100994 -0.0624804 
1 470 8.11098 5.40732 13.5183 -1.61866 1.71257 -0.881029 
1 471 9.46281 6.75915 14.8701 0.393701 1.81887 1.85483 
1 472 10.8146 5.40732 13.5183 -1.441 -1.35038 1.65052 
1 473 12.1665 6.75915 14.8701 1.48455 1.77887 -0.552586 
1 474 13.5183 5.40732 13.5183 -1.44611 -0.0084925 -0.862312 
1 475 8.11098 0 16.222 1.8027 1.33021 -1.54646 
1 476 9.46281 1.35183 17.5738 -0.735247 -0.269488 0.833663 
1 477 10.8146 0 16.222 0.287109 -1.86323 0.199777 
1 478 12.1665 1.35183 17.5738 -1.92331 -0.877817 0.0372095 
1 479 13.5183 0 16.222 1.02195 0.443854 -1.40895 
1 480 8.11098 2.70366 16.222 -0.768858 1.69374 -0.243399 
1 481 9.46281 4.05549 17.5738 -1.86473 0.51503 1.65884 
1 482 10.8146 2.70366 16.222 -1.24985 0.368256 0.499212 
1 483 12.1665 4.05549 17.5738 0.235648 1.36598 1.1359 
1 484 13.5183 2.70366 16.222 -1.94796 0.959566 0.658862 
1 485 8.11098 5.40732 16.222 -0.201928 0.414337 1.97378 
1 486 9.46281 6.75915 17.5738 -0.271197 1.65431 -0.995612 
1 487 10.8146 5.40732 16.222 1.14161 1.74916 -0.424075 
1 488 12.1665 6.75915 17.5738 -1.98575 0.13658 -0.542785 
1 489 13.5183 5.40732 16.222 0.761435 -1.66524 1.90496 
1 490 8.11098 0 18.9256 0.598582 0.455763 0.555781 
1 491 9.46281 1.35183 20.2775 -0.375983 0.567676 -1.47735 
1 492 10.8146 0 18.9256 -0.715901 -0.183763 -1.30536 
1 493 12.1665 1.35183 20.2775 0.05034 -1.29823 -1.82532 
1 494 13.5183 0 18.9256 1.89437 0.0981431 -0.407844 
1 495 8.11098 2.70366 18.9256 1.25378 0.064894 -0.287382 
1 496 9.46281 4.05549 20.2775 0.198938 -1.18177 1.15823 
1 497 10.8146 2.70366 18.9256 0.709998 1.97098 1.43083 
1 498 12.1665 4.05549 20.2775 -0.27351 -1.54774 -1.30651 
1 499 13.5183 2.70366 18.9256 0.48353 1.24504 -1.95477 
1 500 8.11098 5.40732 18.9256 -1.4489 0.712734 -1.40844 
1 501 9.46281 6.75915 20.2775 -0.021893 1.6578 -1.72197 
1 502 10.8146 5.40732 18.9256 -1.3659 0.408899 1.7562 
1 503 12.1665 6.75915 20.2775 1.74985 1.11638 0.0983993 
1 504 13.5183 5.40732 18.9256 -1.22456 1.37159 0.201196 
1 505 8.11098 8.11098 0 -1.85688 1.58297 1.06628 
1 506 9.46281 9.46281 1.35183 1.21389 -0.361738 0.348192 
1 507 10.8146 8.11098 0 -0.92721 0.175631 1.70249 
1 508 12.1665 9.46281 1.35183 -1.05391 -0.566641 1.33584 
1 509 13.5183 8.11098 0 0.885936 1.74432 1.4339 
1 510 8.11098 10.8146 0 -0.102757 -1.71217 -1.98941 
1 511 9.46281 12.1665 1.35183 -0.822212 0.861889 0.133397 
1 512 10.8146 10.8146 0 0.296789 -1.71242 1.84858 
1 513 12.1665 12.1665 1.35183 0.450606 -1.09823 -1.91244 
1 514 13.5183 10.8146 0 0.427422 1.69192 0.785754 
1 515 8.11098 13.5183 0 -0.209584 -1.41358 1.8851 
1 516 10.8146 13.5183 0 -0.154872 -1.54144 1.5417 
1 517 13.5183 13.5183 0 0.115837 1.46022 -0.549206 
1 518 8.11098 8.11098 2.70366 -0.125134 -1.19844 -1.44153 
1 519 9.46281 9.46281 4.05549 -1.25935 -0.584854 0.47808 
1 520 10.8146 8.11098 2.70366 1.84644 -0.748878 -1.24535 
1 521 12.1665 9.46281 4.05549 1.76851 1.52695 -0.981306 
1 522 13.5183 8.11098 2.70366 -0.227603 0.973161 -0.760344 
1 523 8.11098 10.8146 2.70366 -0.86823 0.425806 0.499051 
1 524 9.46281 12.1665 4.05549 1.50272 -1.97574 0.0185477 
1 525 10.8146 10.8146 2.70366 0.536458 -1.10764 -1.56097 
1 526 12.1665 12.1665 4.05549 1.05637 0.146496 -0.385462 
1 527 13.5183 10.8146 2.70366 0.827531 -0.734454 -0.615284 
1 528 8.11098 13.5183 2.70366 -0.759048 0.0734884 1.4515 
1 529 10.8146 13.5183 2.70366 -1.57827 -1.28358 -1.40983 
1 530 13.5183 13.5183 2.70366 0.407238 -0.592526 -1.62599 
1 531 8.11098 8.11098 5.40732 -1.48427 0.782734 1.72376 
1 532 9.46281 9.46281 6.75915 -0.297199 0.676716 -0.255945 