ITEM: TIMESTEP
0
ITEM: NUMBER OF ATOMS
1372
ITEM: BOX BOUNDS xy xz yz pp pp pp
0.0000000000000000e+00 2.3844799999999999e+01 0.0000000000000000e+00
0.0000000000000000e+00 2.3844799999999999e+01 0.0000000000000000e+00
0.0000000000000000e+00 2.3844799999999999e+01 0.0000000000000000e+00
ITEM: ATOMS type id x y z vx vy vz 
1 1 0 0 0 -1.62614 1.3384 1.74523 
1 2 1.7032 1.7032 0 -1.86725 -1.92642 -1.81373 
1 3 1.7032 0 1.7032 1.03022 0.349706 1.61196 
1 4 0 1.7032 1.7032 1.10172 -0.649781 -1.24227 
1 5 3.4064 0 0 -0.948999 1.1745 1.88886 
1 6 5.1096 1.7032 0 -1.41865 -0.625964 -1.8814 
1 7 5.1096 0 1.7032 -0.952926 -1.30765 1.41437 
1 8 3.4064 1.7032 1.7032 -1.17949 1.66654 -1.06994 
1 9 6.8128 0 0 1.68313 1.74237 -0.799806 
1 10 6.8128 1.7032 1.7032 0.489563 0.0604408 -1.23126 
1 11 0 3.4064 0 1.60528 -0.643218 1.8822 
1 12 1.7032 5.1096 0 1.75918 1.72294 -1.81228 
1 13 1.7032 3.4064 1.7032 1.65477 1.5506 -0.601531 
1 14 0 5.1096 1.7032 -1.58933 0.786814 0.298619 
1 15 3.4064 3.4064 0 -1.04645 -1.26652 1.94015 
1 16 5.1096 5.1096 0 -0.790106 0.134017 0.799662 
1 17 5.1096 3.4064 1.7032 0.390125 0.00781312 -0.51615 
1 18 3.4064 5.1096 1.7032 0.366701 -0.680597 0.860958 
1 19 6.8128 3.4064 0 -1.50883 0.137169 -1.79016 
1 20 6.8128 5.1096 1.7032 0.24054 -1.28148 0.629449 
1 21 0 6.8128 0 1.73141 -0.641886 0.461405 
1 22 1.7032 6.8128 1.7032 -0.177061 -1.5877 -1.45242 
1 23 3.4064 6.8128 0 0.189269 -1.58487 -1.42268 
1 24 5.1096 6.8128 1.7032 -0.293471 -1.06287 -1.08466 
1 25 6.8128 6.8128 0 0.272166 -1.66928 0.887283 
1 26 0 0 3.4064 0.307434 -0.394203 -0.878395 
1 27 1.7032 1.7032 3.4064 1.53746 -1.27705 -0.410801 
1 28 1.7032 0 5.1096 0.513271 1.54791 1.87619 
1 29 0 1.7032 5.1096 0.0181772 0.860058 0.728712 
1 30 3.4064 0 3.4064 -1.1716 -0.751525 -0.333767 
1 31 5.1096 1.7032 3.4064 1.12941 0.183279 -0.892455 
1 32 5.1096 0 5.1096 -0.565309 -0.79257 0.53313 
1 33 3.4064 1.7032 5.1096 -1.46539 -0.190505 0.848185 
1 34 6.8128 0 3.4064 -1.82497 -1.90247 -0.270504 
1 35 6.8128 1.7032 5.1096 0.517893 -0.164063 0.655226 
1 36 0 3.4064 3.4064 -1.69751 0.801331 -1.82389 
1 37 1.7032 5.1096 3.4064 1.09969 0.953645 1.66933 
1 38 1.7032 3.4064 5.1096 0.660996 -0.632077 -1.40466 
1 39 0 5.1096 5.1096 1.02511 1.91409 -0.706561 
1 40 3.4064 3.4064 3.4064 -0.35255 -1.59692 -1.52239 
1 41 5.1096 5.1096 3.4064 -0.915225 1.16648 -1.89742 
1 42 5.1096 3.4064 5.1096 -0.22201 1.15507 0.852743 
1 43 3.4064 5.1096 5.1096 -0.651423 0.802066 -1.38168 
1 44 6.8128 3.4064 3.4064 -1.90814 1.59932 0.620933 
1 45 6.8128 5.1096 5.1096 1.50865 -1.10287 1.48647 
1 46 0 6.8128 3.4064 -0.14678 -0.769269 -0.846055 
1 47 1.7032 6.8128 5.1096 1.24091 0.534636 1.51931 
1 48 3.4064 6.8128 3.4064 0.0623234 0.505122 1.67907 
1 49 5.1096 6.8128 5.1096 1.56864 -1.07975 1.02028 
1 50 6.8128 6.8128 3.4064 0.666703 0.0145053 0.81002 
1 51 0 0 6.8128 -0.196045 0.883951 1.35858 
1 52 1.7032 1.7032 6.8128 -1.99925 -1.42752 -0.71581 
1 53 1.7032 0 8.516 -0.971217 0.915416 -1.73079 
1 54 0 1.7032 8.516 1.70643 0.435357 0.168913 
1 55 3.4064 0 6.8128 -1.67851 -1.47453 -0.859201 
1 56 5.1096 1.7032 6.8128 -1.37714 -1.53335 -1.02582 
1 57 5.1096 0 8.516 0.86553 -0.724104 0.0570178 
1 58 3.4064 1.7032 8.516 -0.703105 1.53477 -0.662663 
1 59 6.8128 0 6.8128 -0.899325 -1.53436 1.92565 
1 60 6.8128 1.7032 8.516 1.66284 -1.86956 1.03355 
1 61 0 3.4064 6.8128 1.466 0.590502 -0.345876 
1 62 1.7032 5.1096 6.8128 0.0564061 0.292625 -1.05892 
1 63 1.7032 3.4064 8.516 0.244193 0.570988 1.16073 
1 64 0 5.1096 8.516 -0.760534 0.939261 -1.91645 
1 65 3.4064 3.4064 6.8128 1.40699 1.18959 1.50984 
1 66 5.1096 5.1096 6.8128 -0.365178 0.533283 -1.38463 
1 67 5.1096 3.4064 8.516 0.105373 1.55771 -0.153566 
1 68 3.4064 5.1096 8.516 0.932135 -0.736922 -1.01656 
1 69 6.8128 3.4064 6.8128 1.65849 0.44338 0.0504911 
1 70 6.8128 5.1096 8.516 0.753004 1.56803 -1.29582 
1 71 0 6.8128 6.8128 0.240783 -1.16324 -0.916223 
1 72 1.7032 6.8128 8.516 0.908457 -1.73072 0.383328 
1 73 3.4064 6.8128 6.8128 1.53297 -1.25601 -0.100434 
1 74 5.1096 6.8128 8.516 0.752098 -1.75733 1.83184 
1 75 6.8128 6.8128 6.8128 0.845101 1.27634 -1.22864 
1 76 0 0 10.2192 -1.99657 0.00486508 1.54151 
1 77 1.7032 1.7032 10.2192 -0.0115515 1.38384 -0.740369 
1 78 3.4064 0 10.2192 -0.895798 -1.80612 -0.578754 
1 79 5.1096 1.7032 10.2192 0.130359 0.727332 0.929933 
1 80 6.8128 0 10.2192 -1.3777 0.872524 -0.147088 
1 81 0 3.4064 10.2192 -1.3414 -0.33648 0.681919 
1 82 1.7032 5.1096 10.2192 -1.6396 1.50616 -1.21681 
1 83 3.4064 3.4064 10.2192 -1.63219 -0.990559 -0.517509 
1 84 5.1096 5.1096 10.2192 1.34571 -0.599554 1.36237 
1 85 6.8128 3.4064 10.2192 -1.88805 1.8007 -1.03501 
1 86 0 6.8128 10.2192 1.16315 -0.418943 0.117631 
1 87 3.4064 6.8128 10.2192 1.79288 0.423092 0.463989 
1 88 6.8128 6.8128 10.2192 -0.423145 -1.15857 -1.81518 
1 89 1.7032 0 11.9224 0.530555 -1.71693 -1.99643 
1 90 0 1.7032 11.9224 -1.07586 0.788807 -1.92601 
1 91 5.1096 0 11.9224 -0.37774 -0.210576 0.930712 
1 92 3.4064 1.7032 11.9224 -0.199563 1.30686 -0.379205 
1 93 6.8128 1.7032 11.9224 -0.387808 1.26668 -0.959096 
1 94 1.7032 3.4064 11.9224 -1.15856 0.125511 0.757257 
1 95 0 5.1096 11.9224 -1.75057 -1.78995 1.3561 
1 96 5.1096 3.4064 11.9224 0.0490761 0.156307 -1.6839 
1 97 3.4064 5.1096 11.9224 -0.144823 0.362489 -1.86205 
1 98 6.8128 5.1096 11.9224 -1.24984 -1.64566 0.948739 
1 99 1.7032 6.8128 11.9224 1.09473 0.859806 0.461907 
1 100 5.1096 6.8128 11.9224 0.319672 -1.13793 -0.296608 
1 101 0 0 13.6256 -1.54319 -1.77616 -1.09456 
1 102 1.7032 1.7032 13.6256 0.738093 1.04459 1.89081 
1 103 1.7032 0 15.3288 -0.380841 -0.730024 -0.205996 
1 104 0 1.7032 15.3288 1.00314 1.74159 1.92048 
1 105 3.4064 0 13.6256 -1.8685 0.89833 0.887241 
1 106 5.1096 1.7032 13.6256 -0.404795 1.57556 -1.87879 
1 107 5.1096 0 15.3288 -0.66281 -0.0421676 1.02086 
1 108 3.4064 1.7032 15.3288 -1.46292 1.65257 -1.5778 
1 109 6.8128 0 13.6256 0.674598 1.71303 -1.73377 
1 110 6.8128 1.7032 15.3288 -0.69747 0.97275 1.2224 
1 111 0 3.4064 13.6256 -0.366875 -0.212215 1.16811 
1 112 1.7032 5.1096 13.6256 0.213559 1.75476 1.0652 
1 113 1.7032 3.4064 15.3288 1.45455 -1.33986 -0.170588 
1 114 0 5.1096 15.3288 0.652218 -1.27617 -1.44203 
1 115 3.4064 3.4064 13.6256 0.15185 0.688393 1.47147 
1 116 5.1096 5.1096 13.6256 1.85516 -0.747063 -0.771456 
1 117 5.1096 3.4064 15.3288 0.607551 -1.73461 -1.38584 
1 118 3.4064 5.1096 15.3288 -0.288417 0.517567 0.452882 
1 119 6.8128 3.4064 13.6256 -0.519177 0.459404 -0.568861 
1 120 6.8128 5.1096 15.3288 -0.311614 -0.336626 -1.77377 
1 121 0 6.8128 13.6256 1.76878 0.269686 -1.54382 
1 122 1.7032 6.8128 15.3288 0.270272 -1.74862 1.27836 
1 123 3.4064 6.8128 13.6256 -0.654252 0.885857 1.63796 
1 124 5.1096 6.8128 15.3288 1.46744 0.894438 -1.01061 
1 125 6.8128 6.8128 13.6256 -1.54943 0.501937 -0.249091 
1 126 0 0 17.032 -0.83012 -1.51303 -0.819325 
1 127 1.7032 1.7032 17.032 1.91505 1.44599 -0.130084 
1 128 3.4064 0 17.032 -1.37797 0.300229 -0.287612 
1 129 5.1096 1.7032 17.032 -1.20037 0.0708587 -0.800764 
1 130 6.8128 0 17.032 0.268661 -1.03688 -1.01204 
1 131 0 3.4064 17.032 -1.86542 1.02114 0.662598 
1 132 1.7032 5.1096 17.032 -0.865765 -1.1863 0.429 
1 133 3.4064 3.4064 17.032 -0.976122 1.84014 -1.08684 
1 134 5.1096 5.1096 17.032 -0.538377 -0.687475 0.379342 
1 135 6.8128 3.4064 17.032 -1.95664 0.224965 1.05417 
1 136 0 6.8128 17.032 -1.34771 0.737366 -1.12332 
1 137 3.4064 6.8128 17.032 1.66095 -1.83115 -0.44818 
1 138 6.8128 6.8128 17.032 -0.511232 -0.971696 -1.05354 
1 139 1.7032 0 18.7352 -0.587955 -0.31822 1.90313 
1 140 0 1.7032 18.7352 0.298805 1.45456 0.912581 
1 141 5.1096 0 18.7352 0.725512 -0.0100698 0.617478 
1 142 3.4064 1.7032 18.7352 -0.986053 1.65529 0.348624 
1 143 6.8128 1.7032 18.7352 1.79623 1.22709 0.538446 
1 144 1.7032 3.4064 18.7352 0.549429 1.89945 -0.60828 
1 145 0 5.1096 18.7352 0.103053 -1.6924 1.33129 
1 146 5.1096 3.4064 18.7352 -0.180462 0.798106 -0.455152 
1 147 3.4064 5.1096 18.7352 1.4032 1.00606 1.37805 
1 148 6.8128 5.1096 18.7352 -0.241243 -0.55908 -1.17022 
1 149 1.7032 6.8128 18.7352 -0.69898 -0.592415 -1.71749 
1 150 5.1096 6.8128 18.7352 -0.958863 -1.85359 -0.510159 
1 151 0 0 20.4384 1.81532 0.570819 -1.68673 
1 152 1.7032 1.7032 20.4384 -0.0971953 -1.0241 -0.568927 
1 153 1.7032 0 22.1416 -1.43372 0.132457 -1.58731 
1 154 0 1.7032 22.1416 -0.317126 -1.66385 0.965423 
1 155 3.4064 0 20.4384 -0.354741 1.2848 -2.00686 
1 156 5.1096 1.7032 20.4384 -1.59909 -0.416321 0.524375 
1 157 5.1096 0 22.1416 -1.73356 -1.787 -0.722153 
1 158 3.4064 1.7032 22.1416 -0.404522 -1.77447 -0.420141 
1 159 6.8128 0 20.4384 -1.64975 1.63118 0.139637 
1 160 6.8128 1.7032 22.1416 -1.48623 -1.16756 1.83363 
1 161 0 3.4064 20.4384 -0.805357 1.83414 1.34818 
1 162 1.7032 5.1096 20.4384 1.79638 -0.186257 0.779586 
1 163 1.7032 3.4064 22.1416 0.39666 -1.30998 1.85711 
1 164 0 5.1096 22.1416 0.820804 1.7932 0.0124534 
1 165 3.4064 3.4064 20.4384 0.564117 -1.321 -0.715409 
1 166 5.1096 5.1096 20.4384 1.79425 -0.345029 -0.0993412 
1 167 5.1096 3.4064 22.1416 -0.730329 0.479407 -1.79555 
1 168 3.4064 5.1096 22.1416 0.946273 -1.29441 1.6414 
1 169 6.8128 3.4064 20.4384 -0.30997 -0.481905 1.82062 
1 170 6.8128 5.1096 22.1416 -1.18087 -1.58105 -0.786623 
1 171 0 6.8128 20.4384 -0.243371 -0.602776 -1.19184 
1 172 1.7032 6.8128 22.1416 1.19934 0.562184 0.0676444 
1 173 3.4064 6.8128 20.4384 -0.734844 0.0337766 -0.806838 
1 174 5.1096 6.8128 22.1416 1.39333 1.81675 -1.16849 
1 175 6.8128 6.8128 20.4384 0.572776 1.29525 -1.03749 
1 176 1.7032 8.516 0 -0.859844 -0.911951 -1.23242 
1 177 0 8.516 1.7032 -1.99297 0.873816 1.70854 
1 178 5.1096 8.516 0 0.681407 1.03087 1.59597 
1 179 3.4064 8.516 1.7032 -1.65765 -0.185647 -0.872958 
1 180 6.8128 8.516 1.7032 1.61504 0.570853 -1.11713 
1 181 0 10.2192 0 -1.63024 0.0396699 -0.999559 
1 182 1.7032 11.9224 0 1.56149 1.71127 0.460997 
1 183 1.7032 10.2192 1.7032 0.896467 -0.789318 -0.386023 
1 184 0 11.9224 1.7032 0.149755 1.20448 1.63987 
1 185 3.4064 10.2192 0 1.75555 0.241117 -1.36777 
1 186 5.1096 11.9224 0 1.65177 -1.23702 1.43154 
1 187 5.1096 10.2192 1.7032 1.52306 -1.02875 0.734659 
1 188 3.4064 11.9224 1.7032 -0.467708 0.133416 -1.35386 
1 189 6.8128 10.2192 0 1.34097 -0.832893 1.63616 
1 190 6.8128 11.9224 1.7032 -1.07446 0.358859 0.642004 
1 191 0 13.6256 0 -1.62203 -0.927841 1.63065 
1 192 1.7032 15.3288 0 1.68787 -1.92011 1.04533 
1 193 1.7032 13.6256 1.7032 0.939295 0.52064 0.48559 
1 194 0 15.3288 1.7032 1.40143 -1.01555 0.299975 
1 195 3.4064 13.6256 0 1.89698 -0.577056 -1.59598 
1 196 5.1096 15.3288 0 0.821486 1.35469 1.63632 
1 197 5.1096 13.6256 1.7032 1.60806 -1.6308 0.586189 
1 198 3.4064 15.3288 1.7032 1.10507 0.0818237 0.8843 
1 199 6.8128 13.6256 0 1.76862 1.63316 1.71567 
1 200 6.8128 15.3288 1.7032 1.42918 0.931016 -1.54992 
1 201 1.7032 8.516 3.4064 0.892697 -0.641165 0.662864 
1 202 0 8.516 5.1096 -0.351846 -1.67895 1.15176 
1 203 5.1096 8.516 3.4064 -0.603815 -0.923257 -0.709822 
1 204 3.4064 8.516 5.1096 0.429376 0.748004 -0.967125 
1 205 6.8128 8.516 5.1096 -1.14176 0.63111 -0.637945 
1 206 0 10.2192 3.4064 1.68479 1.82556 0.130539 
1 207 1.7032 11.9224 3.4064 0.404168 1.83426 -0.592107 
1 208 1.7032 10.2192 5.1096 -1.98143 0.368085 0.885247 
1 209 0 11.9224 5.1096 1.80964 0.333649 1.67582 
1 210 3.4064 10.2192 3.4064 -1.38907 0.369011 0.568055 
1 211 5.1096 11.9224 3.4064 -1.99351 -0.21973 1.89029 
1 212 5.1096 10.2192 5.1096 -1.18195 0.107514 -0.0333315 
1 213 3.4064 11.9224 5.1096 1.16623 -0.133809 1.02411 
1 214 6.8128 10.2192 3.4064 1.48199 -0.564583 1.61588 
1 215 6.8128 11.9224 5.1096 -0.491337 -0.037958 0.317267 
1 216 0 13.6256 3.4064 -1.22949 -0.998845 -0.839747 
1 217 1.7032 15.3288 3.4064 0.0662183 -1.51726 -0.570005 
1 218 1.7032 13.6256 5.1096 0.309955 -1.70231 1.58419 
1 219 0 15.3288 5.1096 -1.25605 1.0645 -1.00034 
1 220 3.4064 13.6256 3.4064 0.333207 0.0781403 -1.47824 
1 221 5.1096 15.3288 3.4064 -1.09444 -1.94121 -0.333365 
1 222 5.1096 13.6256 5.1096 -0.053448 -0.144609 -1.86012 
1 223 3.4064 15.3288 5.1096 -0.485361 1.15026 -0.613585 
1 224 6.8128 13.6256 3.4064 -1.72809 -1.19652 -0.63143 
1 225 6.8128 15.3288 5.1096 0.0334471 -0.523826 -0.124887 
1 226 1.7032 8.516 6.8128 -1.36088 1.82311 -1.47981 
1 227 0 8.516 8.516 0.248191 0.285293 -1.23777 
1 228 5.1096 8.516 6.8128 -0.67943 -1.49991 1.38083 
1 229 3.4064 8.516 8.516 -1.23619 1.42202 1.83384 
1 230 6.8128 8.516 8.516 -1.14953 1.0489 -1.18019 
1 231 0 10.2192 6.8128 -1.47005 0.896539 -1.43448 
1 232 1.7032 11.9224 6.8128 -0.113482 -0.84103 -0.151213 
1 233 1.7032 10.2192 8.516 0.771151 0.899765 1.17769 
1 234 0 11.9224 8.516 -1.41647 0.236835 -1.88446 
1 235 3.4064 10.2192 6.8128 -0.730195 -1.22877 1.2497 
1 236 5.1096 11.9224 6.8128 -1.96344 1.09433 0.291638 
1 237 5.1096 10.2192 8.516 0.71472 1.20384 -1.18993 
1 238 3.4064 11.9224 8.516 1.45766 -0.665697 1.19709 
1 239 6.8128 10.2192 6.8128 -0.889869 -1.40262 0.945799 
1 240 6.8128 11.9224 8.516 -0.682754 -1.79271 -1.382 
1 241 0 13.6256 6.8128 0.688955 0.861978 1.23082 
1 242 1.7032 15.3288 6.8128 -1.69677 1.31064 -0.379289 
1 243 1.7032 13.6256 8.516 -1.79754 -1.34802 1.63268 
1 244 0 15.3288 8.516 -0.000961552 0.736181 -1.19596 
1 245 3.4064 13.6256 6.8128 -0.545804 1.52314 -1.63585 
1 246 5.1096 15.3288 6.8128 1.5383 0.988865 -1.83196 
1 247 5.1096 13.6256 8.516 0.31746 1.37837 -1.36645 
1 248 3.4064 15.3288 8.516 0.0364332 -1.94121 -0.293349 
1 249 6.8128 13.6256 6.8128 1.61646 0.727341 1.08285 
1 250 6.8128 15.3288 8.516 0.325245 1.22739 1.74226 
1 251 1.7032 8.516 10.2192 -0.228543 -1.45943 -1.09012 
1 252 5.1096 8.516 10.2192 -0.162352 -0.490929 0.999971 
1 253 0 10.2192 10.2192 0.738578 1.26174 -0.472122 
1 254 1.7032 11.9224 10.2192 -1.97319 -0.0510789 -1.87546 
1 255 3.4064 10.2192 10.2192 -0.311041 1.36591 -0.352896 
1 256 5.1096 11.9224 10.2192 1.1532 -0.951008 1.28982 
1 257 6.8128 10.2192 10.2192 1.56675 -1.13131 -0.197213 
1 258 0 13.6256 10.2192 1.73413 1.42643 0.523459 
1 259 1.7032 15.3288 10.2192 -1.26041 -0.684404 0.381883 
1 260 3.4064 13.6256 10.2192 1.06279 -0.0303869 0.5365 
1 261 5.1096 15.3288 10.2192 -0.397445 -1.92204 0.323482 
1 262 6.8128 13.6256 10.2192 0.00849305 0.85437 0.402564 
1 263 0 8.516 11.9224 -0.683963 1.71329 -1.21914 
1 264 3.4064 8.516 11.9224 -1.08941 -0.769939 -0.195789 
1 265 6.8128 8.516 11.9224 1.84625 0.307951 -1.50816 
1 266 1.7032 10.2192 11.9224 0.116316 -1.08501 -0.112928 
1 267 0 11.9224 11.9224 1.14834 0.725584 -0.662318 
1 268 5.1096 10.2192 11.9224 0.927272 0.889185 -1.97195 
1 269 3.4064 11.9224 11.9224 1.58012 1.24732 -0.718978 
1 270 6.8128 11.9224 11.9224 1.35848 -0.387489 0.815431 
1 271 1.7032 13.6256 11.9224 -0.540956 -0.373912 -1.24038 
1 272 0 15.3288 11.9224 -0.900141 0.630314 1.86282 
1 273 5.1096 13.6256 11.9224 1.52586 -1.73175 -1.01334 
1 274 3.4064 15.3288 11.9224 0.246723 -0.574012 1.92981 
1 275 6.8128 15.3288 11.9224 0.129546 -1.03342 1.57478 
1 276 1.7032 8.516 13.6256 -0.616063 -0.342761 -1.68674 
1 277 0 8.516 15.3288 -0.262569 -1.72135 -0.914802 
1 278 5.1096 8.516 13.6256 0.969287 0.450009 0.319112 
1 279 3.4064 8.516 15.3288 -1.97839 -0.0636392 1.38315 
1 280 6.8128 8.516 15.3288 -1.82464 -0.229847 -1.42471 
1 281 0 10.2192 13.6256 1.46334 -0.524868 -1.76326 
1 282 1.7032 11.9224 13.6256 -0.122402 0.0859849 -0.632619 
1 283 1.7032 10.2192 15.3288 -0.0929416 -0.985423 -1.52307 
1 284 0 11.9224 15.3288 -0.423716 1.14423 1.27709 
1 285 3.4064 10.2192 13.6256 1.90241 -0.539895 -0.266759 
1 286 5.1096 11.9224 13.6256 -0.0536526 0.386905 -0.388673 
1 287 5.1096 10.2192 15.3288 -0.735372 -0.901447 0.631577 
1 288 3.4064 11.9224 15.3288 1.77172 -1.96049 1.09976 
1 289 6.8128 10.2192 13.6256 -1.30333 0.31246 -1.14669 
1 290 6.8128 11.9224 15.3288 1.76396 -1.27332 -1.17261 
1 291 0 13.6256 13.6256 -1.0691 -0.794033 -0.231821 
1 292 1.7032 15.3288 13.6256 -0.360975 -0.281192 0.998889 
1 293 1.7032 13.6256 15.3288 -1.57505 -1.36551 1.43616 
1 294 0 15.3288 15.3288 -0.175737 0.814933 0.514165 
1 295 3.4064 13.6256 13.6256 1.32999 1.12693 0.277121 
1 296 5.1096 15.3288 13.6256 -1.13421 0.529661 1.25379 
1 297 5.1096 13.6256 15.3288 -0.660076 -1.72182 -0.8141 
1 298 3.4064 15.3288 15.3288 -1.57778 0.446768 1.42452 
1 299 6.8128 13.6256 13.6256 -1.33465 1.93108 -0.966448 
1 300 6.8128 15.3288 15.3288 -1.67534 0.2478 -0.198526 
1 301 1.7032 8.516 17.032 -0.488377 -1.90533 -0.618618 
1 302 5.1096 8.516 17.032 1.0036 1.52367 -0.661515 
1 303 0 10.2192 17.032 -1.46385 1.82956 -0.275669 
1 304 1.7032 11.9224 17.032 1.04212 1.94297 0.526067 
1 305 3.4064 10.2192 17.032 -1.08226 0.334209 -0.811829 
1 306 5.1096 11.9224 17.032 0.878303 -0.414019 -0.483082 
1 307 6.8128 10.2192 17.032 0.385136 -0.476424 -1.34187 
1 308 0 13.6256 17.032 0.277534 1.20503 -1.02055 
1 309 1.7032 15.3288 17.032 -1.85865 -0.229093 -0.646006 
1 310 3.4064 13.6256 17.032 1.17781 -0.0330332 -0.272759 
1 311 5.1096 15.3288 17.032 -1.64879 1.78638 0.433419 
1 312 6.8128 13.6256 17.032 1.84636 -1.84524 0.952455 
1 313 0 8.516 18.7352 0.0225248 -1.49284 1.08618 
1 314 3.4064 8.516 18.7352 0.698762 -1.03068 0.0657175 
1 315 6.8128 8.516 18.7352 -1.36337 -0.3432 -1.11465 
1 316 1.7032 10.2192 18.7352 0.456816 1.44934 0.58142 
1 317 0 11.9224 18.7352 0.331994 -0.462103 1.17682 
1 318 5.1096 10.2192 18.7352 -0.184272 0.272554 -0.981955 
1 319 3.4064 11.9224 18.7352 -0.294896 -1.19503 0.661519 
1 320 6.8128 11.9224 18.7352 0.853151 1.6011 -1.2323 
1 321 1.7032 13.6256 18.7352 -0.105511 -1.84442 -1.10935 
1 322 0 15.3288 18.7352 -1.81365 1.85646 -0.676855 
1 323 5.1096 13.6256 18.7352 -1.25446 0.0848592 0.296273 
1 324 3.4064 15.3288 18.7352 -0.77664 0.180692 -0.708849 
1 325 6.8128 15.3288 18.7352 0.901089 1.46648 -1.17933 
1 326 1.7032 8.516 20.4384 1.06864 -0.914522 -0.777899 
1 327 0 8.516 22.1416 -0.488815 -1.31944 1.69965 
1 328 5.1096 8.516 20.4384 -1.82476 1.59344 0.879145 
1 329 3.4064 8.516 22.1416 -1.51107 -1.72772 -0.800082 
1 330 6.8128 8.516 22.1416 -0.179353 -0.407662 -0.822485 
1 331 0 10.2192 20.4384 0.417182 -1.75319 -0.0325757 
1 332 1.7032 11.9224 20.4384 -2.00951 0.858804 -0.504592 
1 333 1.7032 10.2192 22.1416 0.114018 -0.0141439 -0.371352 
1 334 0 11.9224 22.1416 0.593824 1.7618 0.155876 
1 335 3.4064 10.2192 20.4384 1.50338 1.56129 0.471409 
1 336 5.1096 11.9224 20.4384 1.23314 0.874629 -0.494163 
1 337 5.1096 10.2192 22.1416 0.735299 1.71998 -0.0811133 
1 338 3.4064 11.9224 22.1416 -0.0359013 1.00964 1.94844 
1 339 6.8128 10.2192 20.4384 -0.384419 -1.32356 -0.0455601 
1 340 6.8128 11.9224 22.1416 -1.90813 1.83025 -0.489059 
1 341 0 13.6256 20.4384 -0.816126 -0.52159 1.72018 
1 342 1.7032 15.3288 20.4384 1.93185 1.94053 -0.840336 
1 343 1.7032 13.6256 22.1416 -1.89437 -1.16319 -0.183892 
1 344 0 15.3288 22.1416 -0.644694 -1.22001 1.57783 
1 345 3.4064 13.6256 20.4384 -0.891205 -0.0415409 -0.355708 
1 346 5.1096 15.3288 20.4384 1.54248 -0.269196 0.168334 
1 347 5.1096 13.6256 22.1416 0.491687 0.0168676 0.816274 
1 348 3.4064 15.3288 22.1416 1.71023 0.789508 1.91052 
1 349 6.8128 13.6256 20.4384 1.31145 -0.753232 -1.24166 
1 350 6.8128 15.3288 22.1416 1.50671 -1.88794 1.82834 
1 351 0 17.032 0 1.54921 1.71598 0.318384 
1 352 1.7032 18.7352 0 1.65965 0.0643263 0.558631 
1 353 1.7032 17.032 1.7032 -1.59212 1.50818 1.00988 
1 354 0 18.7352 1.7032 0.473008 -0.312068 -1.87768 
1 355 3.4064 17.032 0 -1.94109 -0.446011 1.69089 
1 356 5.1096 18.7352 0 1.77433 -1.65845 0.422143 
1 357 5.1096 17.032 1.7032 -1.0917 0.51194 1.15213 
1 358 3.4064 18.7352 1.7032 1.57497 1.94634 1.51348 
1 359 6.8128 17.032 0 1.37041 1.67922 1.73164 
1 360 6.8128 18.7352 1.7032 -0.067251 -1.89333 -1.44535 
1 361 0 20.4384 0 -0.188145 -1.30393 0.361894 
1 362 1.7032 22.1416 0 -1.44214 1.53412 0.273116 
1 363 1.7032 20.4384 1.7032 -0.9598 -1.70979 -1.12281 
1 364 0 22.1416 1.7032 -1.73313 1.44249 0.591327 
1 365 3.4064 20.4384 0 0.119767 1.33979 1.25725 
1 366 5.1096 22.1416 0 1.84168 -1.06975 -1.57212 
1 367 5.1096 20.4384 1.7032 0.899714 -1.79506 -1.13605 
1 368 3.4064 22.1416 1.7032 -1.91692 0.972321 -2.01344 
1 369 6.8128 20.4384 0 -1.02024 -1.30609 -0.217877 
1 370 6.8128 22.1416 1.7032 -0.211475 -0.41745 1.39585 
1 371 0 17.032 3.4064 1.22753 1.9251 1.73771 
1 372 1.7032 18.7352 3.4064 -1.27832 -0.00955461 1.3374 
1 373 1.7032 17.032 5.1096 -0.665411 -0.0921602 -1.6119 
1 374 0 18.7352 5.1096 -0.777503 1.56631 1.44506 
1 375 3.4064 17.032 3.4064 -1.45515 1.16482 -1.92118 
1 376 5.1096 18.7352 3.4064 1.35562 -0.85161 0.657656 
1 377 5.1096 17.032 5.1096 -0.561252 -0.101183 1.56216 
1 378 3.4064 18.7352 5.1096 1.74134 -0.459675 -1.69142 
1 379 6.8128 17.032 3.4064 0.559031 0.52588 1.22591 
1 380 6.8128 18.7352 5.1096 -0.774719 0.715079 1.41676 
1 381 0 20.4384 3.4064 -0.712905 -0.415051 -1.94219 
1 382 1.7032 22.1416 3.4064 1.51658 1.1317 1.13787 
1 383 1.7032 20.4384 5.1096 0.202207 1.50035 0.470307 
1 384 0 22.1416 5.1096 -1.40677 0.590048 -0.0431096 
1 385 3.4064 20.4384 3.4064 -0.419408 -1.86607 0.28648 
1 386 5.1096 22.1416 3.4064 1.35679 -0.965096 -1.27548 
1 387 5.1096 20.4384 5.1096 0.723033 1.98784 0.272738 
1 388 3.4064 22.1416 5.1096 0.636289 0.93684 1.06111 
1 389 6.8128 20.4384 3.4064 0.193192 0.837533 -0.738465 
1 390 6.8128 22.1416 5.1096 -0.647888 0.676971 0.0434424 
1 391 0 17.032 6.8128 1.37346 1.36695 1.28793 
1 392 1.7032 18.7352 6.8128 1.46878 -0.433276 1.36899 
1 393 1.7032 17.032 8.516 -1.70999 1.32147 -1.0372 
1 394 0 18.7352 8.516 0.0108886 1.41978 -0.00501366 
1 395 3.4064 17.032 6.8128 0.748271 1.41205 1.07828 
1 396 5.1096 18.7352 6.8128 -1.10014 1.5187 -0.865086 
1 397 5.1096 17.032 8.516 -1.04955 -1.67953 -0.592034 
1 398 3.4064 18.7352 8.516 -0.763075 1.89997 0.164025 
1 399 6.8128 17.032 6.8128 -0.47856 0.333579 0.498628 
1 400 6.8128 18.7352 8.516 -1.7794 1.79306 1.71072 
1 401 0 20.4384 6.8128 1.64508 1.43748 -0.362687 
1 402 1.7032 22.1416 6.8128 -0.638054 -0.766257 -1.81379 
1 403 1.7032 20.4384 8.516 0.0657797 -0.950577 0.595666 
1 404 0 22.1416 8.516 1.59378 0.567503 -1.8378 
1 405 3.4064 20.4384 6.8128 1.40888 1.18479 0.30765 
1 406 5.1096 22.1416 6.8128 -0.114899 -0.84426 1.12584 
1 407 5.1096 20.4384 8.516 0.407708 1.78062 -1.00527 
1 408 3.4064 22.1416 8.516 0.872406 -0.279892 -0.969879 
1 409 6.8128 20.4384 6.8128 0.20624 1.80755 -0.867707 
1 410 6.8128 22.1416 8.516 -1.43694 1.64066 0.594354 
1 411 0 17.032 10.2192 -0.61288 1.53991 -1.55592 
1 412 1.7032 18.7352 10.2192 -0.647794 -1.72284 1.92067 
1 413 3.4064 17.032 10.2192 1.29933 1.89299 -1.90469 
1 414 5.1096 18.7352 10.2192 0.630094 0.0328091 -1.19032 
1 415 6.8128 17.032 10.2192 -1.04273 1.70787 -1.1306 
1 416 0 20.4384 10.2192 -1.6172 0.816295 -0.425109 
1 417 1.7032 22.1416 10.2192 -1.78056 -1.68002 -0.877848 
1 418 3.4064 20.4384 10.2192 -1.17298 -0.0317761 1.00628 
1 419 5.1096 22.1416 10.2192 -0.458855 -1.92413 0.998943 
1 420 6.8128 20.4384 10.2192 -0.661286 1.76822 0.895242 
1 421 1.7032 17.032 11.9224 -0.89948 -0.177528 0.62368 
1 422 0 18.7352 11.9224 0.0448279 0.210148 -1.84311 
1 423 5.1096 17.032 11.9224 -0.390081 -1.20466 1.54888 
1 424 3.4064 18.7352 11.9224 0.740252 1.59249 0.82778 
1 425 6.8128 18.7352 11.9224 0.574106 -0.165808 -0.881631 
1 426 1.7032 20.4384 11.9224 -1.25081 1.78773 -0.579486 
1 427 0 22.1416 11.9224 -0.250175 0.172456 -0.205739 
1 428 5.1096 20.4384 11.9224 1.33997 -1.78939 -1.12924 
1 429 3.4064 22.1416 11.9224 1.25972 -0.964961 0.996854 
1 430 6.8128 22.1416 11.9224 -0.0496061 0.911551 0.786008 
1 431 0 17.032 13.6256 1.14643 0.515452 0.625542 
1 432 1.7032 18.7352 13.6256 -0.425053 -1.47113 0.742614 
1 433 1.7032 17.032 15.3288 -1.73775 -0.780403 -1.4 
1 434 0 18.7352 15.3288 -0.0606238 -1.6601 0.50131 
1 435 3.4064 17.032 13.6256 -0.368765 -0.222736 -0.996468 
1 436 5.1096 18.7352 13.6256 1.89481 -1.29191 -0.0727634 
1 437 5.1096 17.032 15.3288 1.36309 1.64074 1.95018 
1 438 3.4064 18.7352 15.3288 1.13619 -0.953551 -1.75278 
1 439 6.8128 17.032 13.6256 1.31721 0.650411 -1.75483 
1 440 6.8128 18.7352 15.3288 -1.34004 -1.38415 1.79767 
1 441 0 20.4384 13.6256 -1.69546 -0.563059 -0.560458 
1 442 1.7032 22.1416 13.6256 -1.98959 -1.78853 1.43433 
1 443 1.7032 20.4384 15.3288 0.884743 0.643792 -1.84459 
1 444 0 22.1416 15.3288 -1.53409 0.326281 0.900311 
1 445 3.4064 20.4384 13.6256 0.929621 0.679052 -0.703568 
1 446 5.1096 22.1416 13.6256 -1.65458 -0.17829 -0.281527 
1 447 5.1096 20.4384 15.3288 1.83138 0.413508 -1.83839 
1 448 3.4064 22.1416 15.3288 -0.563451 -1.32437 -1.76269 
1 449 6.8128 20.4384 13.6256 1.43231 -1.8943 -1.92353 
1 450 6.8128 22.1416 15.3288 1.6345 -1.75032 0.536337 
1 451 0 17.032 17.032 0.835548 -0.48347 -0.670558 
1 452 1.7032 18.7352 17.032 1.37595 -0.47496 -0.54573 
1 453 3.4064 17.032 17.032 -0.573067 -0.182008 0.75296 
1 454 5.1096 18.7352 17.032 1.45738 -1.42095 -1.42856 
1 455 6.8128 17.032 17.032 0.204895 -0.958076 1.58186 
1 456 0 20.4384 17.032 -0.563405 -0.547704 -0.51954 
1 457 1.7032 22.1416 17.032 -1.03898 1.26016 0.649463 
1 458 3.4064 20.4384 17.032 0.684564 -1.47895 0.294416 
1 459 5.1096 22.1416 17.032 -0.23288 1.05558 -0.00193186 
1 460 6.8128 20.4384 17.032 0.938835 0.726599 0.518891 
1 461 1.7032 17.032 18.7352 1.36179 -0.28072 1.00484 
1 462 0 18.7352 18.7352 -0.737999 -1.38978 -1.47185 
1 463 5.1096 17.032 18.7352 -0.859462 1.54691 0.895494 
1 464 3.4064 18.7352 18.7352 -0.635129 0.746777 -1.74016 
1 465 6.8128 18.7352 18.7352 -0.918686 -1.43864 -1.06573 
1 466 1.7032 20.4384 18.7352 0.937313 -1.04054 1.04386 
1 467 0 22.1416 18.7352 0.0147795 -0.66971 1.23275 
1 468 5.1096 20.4384 18.7352 -0.937138 -1.92687 -1.44315 
1 469 3.4064 22.1416 18.7352 1.13791 0.121918 -0.0864045 
1 470 6.8128 22.1416 18.7352 -1.63273 1.73575 -0.906098 
1 471 0 17.032 20.4384 0.38244 1.8422 1.83359 
1 472 1.7032 18.7352 20.4384 -1.45483 -1.33149 1.62899 
1 473 1.7032 17.032 22.1416 1.47481 1.80214 -0.577196 
1 474 0 18.7352 22.1416 -1.45995 0.0122786 -0.887355 
1 475 3.4064 17.032 20.4384 1.79341 1.35285 -1.57246 
1 476 5.1096 18.7352 20.4384 -0.748087 -0.249082 0.810992 
1 477 5.1096 17.032 22.1416 0.275699 -1.84505 0.17622 
1 478 3.4064 18.7352 22.1416 -1.93781 -0.858262 0.0134248 
1 479 6.8128 17.032 20.4384 1.01157 0.465257 -1.43476 
1 480 6.8128 18.7352 22.1416 -0.781745 1.71689 -0.267576 
1 481 0 20.4384 20.4384 -1.87915 0.536533 1.63733 
1 482 1.7032 22.1416 20.4384 -1.26341 0.389554 0.476073 
1 483 1.7032 20.4384 22.1416 0.224166 1.38867 1.11365 
1 484 0 22.1416 22.1416 -1.9625 0.98169 0.635947 
1 485 3.4064 20.4384 20.4384 -0.214022 0.435699 1.9527 
1 486 5.1096 22.1416 20.4384 -0.283388 1.67741 -1.02084 
1 487 5.1096 20.4384 22.1416 1.13139 1.77239 -0.448505 
1 488 3.4064 22.1416 22.1416 -2.00034 0.157554 -0.56738 
1 489 6.8128 20.4384 20.4384 0.750687 -1.64679 1.88378 
1 490 6.8128 22.1416 22.1416 0.587607 0.477184 0.532722 
1 491 8.516 1.7032 0 -0.388321 0.589253 -1.50325 
1 492 8.516 0 1.7032 -0.728714 -0.163236 -1.33102 
1 493 10.2192 0 0 0.0385983 -1.27926 -1.85171 
1 494 11.9224 1.7032 0 1.88521 0.119063 -0.432251 
1 495 11.9224 0 1.7032 1.24372 0.0857678 -0.311621 
1 496 10.2192 1.7032 1.7032 0.187405 -1.16264 1.13601 
1 497 13.6256 0 0 0.699178 1.99452 1.40899 
1 498 15.3288 1.7032 0 -0.285704 -1.52912 -1.33218 
1 499 15.3288 0 1.7032 0.472393 1.26756 -1.98134 
1 500 13.6256 1.7032 1.7032 -1.46274 0.734513 -1.43424 
1 501 8.516 5.1096 0 -0.0337357 1.6809 -1.74822 
1 502 8.516 3.4064 1.7032 -1.37962 0.430254 1.73482 
1 503 10.2192 3.4064 0 1.74049 1.13872 0.0747001 
1 504 11.9224 5.1096 0 -1.23808 1.39429 0.177641 
1 505 11.9224 3.4064 1.7032 -1.87129 1.60596 1.04393 
1 506 10.2192 5.1096 1.7032 1.20378 -0.341461 0.324842 
1 507 13.6256 3.4064 0 -0.940319 0.196659 1.68103 
1 508 15.3288 5.1096 0 -1.0672 -0.546651 1.31388 
1 509 15.3288 3.4064 1.7032 0.875362 1.76754 1.41207 
1 510 13.6256 5.1096 1.7032 -0.114713 -1.69378 -2.01602 
1 511 8.516 6.8128 1.7032 -0.835173 0.883877 0.109747 
1 512 10.2192 6.8128 0 0.285392 -1.69403 1.82732 
1 513 11.9224 6.8128 1.7032 0.439424 -1.07898 -1.93895 
1 514 13.6256 6.8128 0 0.416207 1.71507 0.763016 
1 515 15.3288 6.8128 1.7032 -0.221689 -1.39477 1.8639 
1 516 8.516 1.7032 3.4064 -0.166901 -1.52281 1.52002 
1 517 8.516 0 5.1096 0.104187 1.48305 -0.57381 
1 518 10.2192 0 3.4064 -0.137121 -1.17933 -1.46738 
1 519 11.9224 1.7032 3.4064 -1.27292 -0.564888 0.454912 
1 520 11.9224 0 5.1096 1.83721 -0.729142 -1.27093 
1 521 10.2192 1.7032 5.1096 1.75917 1.54986 -1.00652 
1 522 13.6256 0 3.4064 -0.239734 0.995305 -0.785244 
1 523 15.3288 1.7032 3.4064 -0.881256 0.447184 0.475912 
1 524 15.3288 0 5.1096 1.49301 -1.95772 -0.00526311 
1 525 13.6256 1.7032 5.1096 0.525396 -1.08841 -1.58699 
1 526 8.516 5.1096 3.4064 1.04603 0.167483 -0.409838 
1 527 8.516 3.4064 5.1096 0.816876 -0.714697 -0.639981 
1 528 10.2192 3.4064 3.4064 -0.771922 0.0943742 1.4297 
1 529 11.9224 5.1096 3.4064 -1.59229 -1.26459 -1.43563 
1 530 11.9224 3.4064 5.1096 0.395995 -0.572572 -1.6521 
1 531 10.2192 5.1096 5.1096 -1.49816 0.804612 1.70234 
1 532 13.6256 3.4064 3.4064 -0.309427 0.698445 -0.28014 
1 533 15.3288 5.1096 3.4064 1.32267 1.20196 -0.937061 
1 534 15.3288 3.4064 5.1096 -0.00282927 1.10257 -0.119542 
1 535 13.6256 5.1096 5.1096 1.15041 -0.160362 -0.661481 
1 536 8.516 6.8128 5.1096 -0.883941 -1.0113 0.236192 
1 537 10.2192 6.8128 3.4064 1.69061 0.487125 0.891956 
1 538 11.9224 6.8128 5.1096 -0.547129 -0.901121 -1.81729 
1 539 13.6256 6.8128 3.4064 0.789366 1.37144 1.20799 
1 540 15.3288 6.8128 5.1096 -0.412163 0.805828 -1.67977 
1 541 8.516 1.7032 6.8128 1.80111 -0.0874734 1.73574 
1 542 8.516 0 8.516 1.4621 -1.51047 -1.46693 
1 543 10.2192 0 6.8128 -1.60312 -0.676052 1.82166 
1 544 11.9224 1.7032 6.8128 0.539184 0.407175 -1.08834 
1 545 11.9224 0 8.516 -1.91943 -1.6706 -1.3355 
1 546 10.2192 1.7032 8.516 0.215536 -0.744131 0.878089 
1 547 13.6256 0 6.8128 0.590045 1.76576 -0.648559 
1 548 15.3288 1.7032 6.8128 1.93742 0.284521 1.67933 
1 549 15.3288 0 8.516 -1.87881 -1.61586 1.70738 
1 550 13.6256 1.7032 8.516 1.04272 0.0937086 -1.81741 
1 551 8.516 5.1096 6.8128 -1.15806 0.644302 -1.20718 
1 552 8.516 3.4064 8.516 1.30979 -0.975517 -1.75391 