ITEM: TIMESTEP
0
ITEM: NUMBER OF ATOMS
1152
ITEM: BOX BOUNDS xy xz yz pp pp pp
0.0000000000000000e+00 2.3417121941007185e+01 0.0000000000000000e+00
0.0000000000000000e+00 1.9120000000000001e+01 0.0000000000000000e+00
0.0000000000000000e+00 2.4837608580537704e+01 0.0000000000000000e+00
ITEM: ATOMS type id x y z vx vy vz 
1 1 0 0 0 -1.61778 1.3123 1.74706 
1 2 0 1.195 2.0698 -1.85821 -1.9434 -1.80196 
1 3 1.95143 1.195 3.44967 1.03117 0.326363 1.61416 
1 4 1.95143 0 1.37987 1.10247 -0.670332 -1.2321 
1 5 0 2.39 0 -0.942524 1.14885 1.89029 
1 6 0 3.585 2.0698 -1.41086 -0.646581 -1.86944 
1 7 1.95143 3.585 3.44967 -0.94644 -1.32636 1.41712 
1 8 1.95143 2.39 1.37987 -1.17237 1.63952 -1.06024 
1 9 0 4.78 0 1.68225 1.71514 -0.790867 
1 10 0 5.975 2.0698 0.492021 0.0379063 -1.22111 
1 11 1.95143 5.975 3.44967 1.60462 -0.663787 1.88365 
1 12 1.95143 4.78 1.37987 1.75809 1.69577 -1.80051 
1 13 0 0 4.1396 1.65398 1.5239 -0.593146 
1 14 0 1.195 6.2094 -1.58107 0.762251 0.30449 
1 15 1.95143 0 5.51947 -1.03971 -1.28535 1.94144 
1 16 0 2.39 4.1396 -0.784074 0.111277 0.804134 
1 17 0 3.585 6.2094 0.39286 -0.0145744 -0.508003 
1 18 1.95143 2.39 5.51947 0.369502 -0.701062 0.865259 
1 19 0 4.78 4.1396 -1.50079 0.11442 -1.77846 
1 20 0 5.975 6.2094 0.243693 -1.30026 0.634396 
1 21 1.95143 4.78 5.51947 1.73039 -0.662459 0.466822 
1 22 3.90285 0 0 -0.172741 -1.60563 -1.44165 
1 23 3.90285 1.195 2.0698 0.192565 -1.6028 -1.41201 
1 24 5.85428 1.195 3.44967 -0.288826 -1.08226 -1.07493 
1 25 5.85428 0 1.37987 0.275231 -1.68699 0.89151 
1 26 3.90285 2.39 0 0.310401 -0.415467 -0.869236 
1 27 3.90285 3.585 2.0698 1.53699 -1.29585 -0.402949 
1 28 5.85428 3.585 3.44967 0.515662 1.52122 1.87766 
1 29 5.85428 2.39 1.37987 0.0219513 0.835291 0.733382 
1 30 3.90285 4.78 0 -1.16451 -0.771791 -0.326129 
1 31 3.90285 5.975 2.0698 1.13008 0.160402 -0.883258 
1 32 5.85428 5.975 3.44967 -0.559905 -0.812722 0.538346 
1 33 5.85428 4.78 1.37987 -1.45747 -0.212338 0.852521 
1 34 3.90285 0 4.1396 -1.81605 -1.91952 -0.263044 
1 35 3.90285 1.195 6.2094 0.520271 -0.18597 0.660101 
1 36 5.85428 0 5.51947 -1.68894 0.776728 -1.81209 
1 37 3.90285 2.39 4.1396 1.10045 0.928616 1.67137 
1 38 3.90285 3.585 6.2094 0.662975 -0.652677 -1.39403 
1 39 5.85428 2.39 5.51947 1.02608 1.88637 -0.697883 
1 40 3.90285 4.78 4.1396 -0.347741 -1.61482 -1.51144 
1 41 3.90285 5.975 6.2094 -0.908844 1.14085 -1.88542 
1 42 5.85428 4.78 5.51947 -0.217565 1.12947 0.857066 
1 43 1.95143 1.195 7.58927 -0.645779 0.777461 -1.37112 
1 44 1.95143 3.585 7.58927 -1.89898 1.57249 0.625904 
1 45 1.95143 5.975 7.58927 1.50826 -1.12215 1.48902 
1 46 0 0 8.2792 -0.142545 -0.789487 -0.836987 
1 47 0 1.195 10.349 1.24127 0.510778 1.52177 
1 48 1.95143 1.195 11.7289 0.0659743 0.481346 1.68108 
1 49 1.95143 0 9.65907 1.56809 -1.0991 1.02413 
1 50 0 2.39 8.2792 0.668666 -0.00790087 0.814462 
1 51 0 3.585 10.349 -0.191673 0.859116 1.36149 
1 52 1.95143 3.585 11.7289 -1.98984 -1.4459 -0.707105 
1 53 1.95143 2.39 9.65907 -0.964679 0.890494 -1.71925 
1 54 0 4.78 8.2792 1.70549 0.411775 0.175147 
1 55 0 5.975 10.349 -1.67 -1.49278 -0.850096 
1 56 1.95143 5.975 11.7289 -1.36946 -1.55144 -1.01625 
1 57 1.95143 4.78 9.65907 0.866938 -0.744447 0.0635636 
1 58 0 0 12.4188 -0.697316 1.50812 -0.654107 
1 59 0 2.39 12.4188 -0.892988 -1.55244 1.92698 
1 60 0 4.78 12.4188 1.66202 -1.88671 1.03737 
1 61 5.85428 1.195 7.58927 1.46573 0.566487 -0.338205 
1 62 5.85428 3.585 7.58927 0.0600734 0.269442 -1.04926 
1 63 5.85428 5.975 7.58927 0.247336 0.547028 1.16419 
1 64 3.90285 0 8.2792 -0.754585 0.914272 -1.9044 
1 65 3.90285 1.195 10.349 1.40689 1.1639 1.51233 
1 66 5.85428 1.195 11.7289 -0.360333 0.509428 -1.37406 
1 67 5.85428 0 9.65907 0.108903 1.53099 -0.146432 
1 68 3.90285 2.39 8.2792 0.933356 -0.757229 -1.00701 
1 69 3.90285 3.585 10.349 1.65768 0.419776 0.0570552 
1 70 5.85428 3.585 11.7289 0.754726 1.54129 -1.28549 
1 71 5.85428 2.39 9.65907 0.243936 -1.18235 -0.906959 
1 72 3.90285 4.78 8.2792 0.909744 -1.74825 0.388963 
1 73 3.90285 5.975 10.349 1.53251 -1.27487 -0.0934484 
1 74 5.85428 5.975 11.7289 0.753822 -1.77478 1.83343 
1 75 5.85428 4.78 9.65907 0.846565 1.25041 -1.2185 
1 76 3.90285 0 12.4188 -1.98717 -0.0175142 1.54391 
1 77 3.90285 2.39 12.4188 -0.00769436 1.35761 -0.731596 
1 78 3.90285 4.78 12.4188 -0.889471 -1.82345 -0.570433 
1 79 0 1.195 14.4886 0.13382 0.702935 0.934041 
1 80 1.95143 1.195 15.8685 -1.37003 0.847722 -0.139972 
1 81 1.95143 0 13.7987 -1.33383 -0.357906 0.68672 
1 82 0 3.585 14.4886 -1.63119 1.47958 -1.2067 
1 83 1.95143 3.585 15.8685 -1.6238 -1.01016 -0.509359 
1 84 1.95143 2.39 13.7987 1.34578 -0.620245 1.36527 
1 85 0 5.975 14.4886 -1.87895 1.7733 -1.02541 
1 86 1.95143 5.975 15.8685 1.16372 -0.440139 0.124007 
1 87 1.95143 4.78 13.7987 1.7917 0.399545 0.469398 
1 88 0 0 16.5584 -0.418138 -1.1777 -1.80341 
1 89 0 1.195 18.6282 0.532898 -1.7345 -1.98415 
1 90 1.95143 0 17.9383 -1.06903 0.764239 -1.91392 
1 91 0 2.39 16.5584 -0.37286 -0.232353 0.934818 
1 92 0 3.585 18.6282 -0.195181 1.28085 -0.371441 
1 93 1.95143 2.39 17.9383 -0.3829 1.24077 -0.949712 
1 94 0 4.78 16.5584 -1.1515 0.102795 0.761847 
1 95 0 5.975 18.6282 -1.74185 -1.80732 1.35902 
1 96 1.95143 4.78 17.9383 0.0527639 0.133504 -1.67249 
1 97 3.90285 1.195 14.4886 -0.140594 0.339111 -1.85015 
1 98 5.85428 1.195 15.8685 -1.24252 -1.66343 0.952795 
1 99 5.85428 0 13.7987 1.0955 0.835039 0.467322 
1 100 3.90285 3.585 14.4886 0.322604 -1.15712 -0.289074 
1 101 5.85428 3.585 15.8685 -1.53506 -1.79356 -1.08479 
1 102 5.85428 2.39 13.7987 0.739857 1.01931 1.89224 
1 103 3.90285 5.975 14.4886 -0.375953 -0.750351 -0.198715 
1 104 5.85428 5.975 15.8685 1.00416 1.71436 1.92182 
1 105 5.85428 4.78 13.7987 -1.85946 0.873456 0.891468 
1 106 3.90285 0 16.5584 -0.39984 1.54879 -1.86684 
1 107 3.90285 1.195 18.6282 -0.657134 -0.0644155 1.02472 
1 108 5.85428 0 17.9383 -1.45501 1.62559 -1.56669 
1 109 3.90285 2.39 16.5584 0.676539 1.68588 -1.72222 
1 110 3.90285 3.585 18.6282 -0.691697 0.947667 1.22569 
1 111 5.85428 2.39 17.9383 -0.362026 -0.233988 1.17155 
1 112 3.90285 4.78 16.5584 0.216787 1.7275 1.06893 
1 113 3.90285 5.975 18.6282 1.45431 -1.35849 -0.163407 
1 114 5.85428 4.78 17.9383 0.654222 -1.29497 -1.43129 
1 115 1.95143 1.195 20.0081 0.155251 0.664105 1.47407 
1 116 1.95143 3.585 20.0081 1.85381 -0.767342 -0.762597 
1 117 1.95143 5.975 20.0081 0.609679 -1.75213 -1.37526 
1 118 0 0 20.698 -0.283787 0.493756 0.458322 
1 119 0 1.195 22.7678 -0.513902 0.435755 -0.560567 
1 120 1.95143 1.195 24.1477 -0.306919 -0.358051 -1.76212 
1 121 1.95143 0 22.0779 1.76766 0.246567 -1.5328 
1 122 0 2.39 20.698 0.273342 -1.7661 1.28149 
1 123 0 3.585 22.7678 -0.6486 0.861017 1.64009 
1 124 1.95143 3.585 24.1477 1.46716 0.869575 -1.00108 
1 125 1.95143 2.39 22.0779 -1.54128 0.47817 -0.24169 
1 126 0 4.78 20.698 -0.823977 -1.53117 -0.810332 
1 127 0 5.975 22.7678 1.91352 1.41959 -0.123016 
1 128 1.95143 5.975 24.1477 -1.3703 0.277025 -0.280104 
1 129 1.95143 4.78 22.0779 -1.19319 0.0482951 -0.791823 
1 130 5.85428 1.195 20.0081 0.271736 -1.05635 -1.00251 
1 131 5.85428 3.585 20.0081 -1.85639 0.995918 0.667452 
1 132 5.85428 5.975 20.0081 -0.859522 -1.20536 0.434507 
1 133 3.90285 0 20.698 -0.96957 1.81263 -1.0771 
1 134 3.90285 1.195 22.7678 -0.533048 -0.707921 0.384987 
1 135 5.85428 1.195 24.1477 -1.94735 0.201971 1.05793 
1 136 5.85428 0 22.0779 -1.34012 0.712941 -1.11347 
1 137 3.90285 2.39 20.698 1.66014 -1.8484 -0.440223 
1 138 3.90285 3.585 22.7678 -0.505979 -0.991348 -1.04389 
1 139 5.85428 3.585 24.1477 -0.582488 -0.339697 1.90452 
1 140 5.85428 2.39 22.0779 0.301796 1.42813 0.916737 
1 141 3.90285 4.78 20.698 0.727311 -0.0324074 0.622459 
1 142 3.90285 5.975 22.7678 -0.979474 1.6283 0.354355 
1 143 5.85428 5.975 24.1477 1.79504 1.20129 0.543647 
1 144 5.85428 4.78 22.0779 0.551719 1.87178 -0.599876 
1 145 0 7.17 0 0.106591 -1.71004 1.33428 
1 146 0 8.365 2.0698 -0.176133 0.773512 -0.447175 
1 147 1.95143 8.365 3.44967 1.40311 0.980886 1.38091 
1 148 1.95143 7.17 1.37987 -0.236744 -0.579884 -1.16025 
1 149 0 9.56 0 -0.693203 -0.613127 -1.70599 
1 150 0 10.755 2.0698 -0.95236 -1.87078 -0.502029 
1 151 1.95143 10.755 3.44967 1.81408 0.546859 -1.67532 
1 152 1.95143 9.56 1.37987 -0.093099 -1.04361 -0.560633 
1 153 0 11.95 0 -1.42589 0.109722 -1.57617 
1 154 1.95143 11.95 1.37987 -0.312415 -1.68157 0.969431 
1 155 0 7.17 4.1396 -0.349925 1.25885 -1.99455 
1 156 0 8.365 6.2094 -1.5908 -0.437524 0.529616 
1 157 1.95143 7.17 5.51947 -1.72489 -1.80438 -0.713431 
1 158 0 9.56 4.1396 -0.399568 -1.79188 -0.412263 
1 159 0 10.755 6.2094 -1.64131 1.60426 0.145953 
1 160 1.95143 9.56 5.51947 -1.47826 -1.18667 1.83521 
1 161 0 11.95 4.1396 -0.799283 1.80665 1.35112 
1 162 1.95143 11.95 5.51947 1.79519 -0.208103 0.784114 
1 163 3.90285 7.17 0 0.399377 -1.32869 1.85863 
1 164 3.90285 8.365 2.0698 0.822336 1.76583 0.0191237 
1 165 5.85428 8.365 3.44967 0.566366 -1.33968 -0.706706 
1 166 5.85428 7.17 1.37987 1.79306 -0.366431 -0.0923587 
1 167 3.90285 9.56 0 -0.724465 0.455702 -1.78383 
1 168 3.90285 10.755 2.0698 0.947455 -1.31316 1.64352 
1 169 5.85428 10.755 3.44967 -0.305279 -0.502924 1.82224 
1 170 5.85428 9.56 1.37987 -1.17374 -1.599 -0.777721 
1 171 3.90285 11.95 0 -0.238867 -0.623459 -1.1818 
1 172 5.85428 11.95 1.37987 1.19982 0.538248 0.0741605 
1 173 3.90285 7.17 4.1396 -0.728966 0.0113166 -0.79788 
1 174 3.90285 8.365 6.2094 1.39326 1.78931 -1.15852 
1 175 5.85428 7.17 5.51947 0.575001 1.26927 -1.02789 
1 176 3.90285 9.56 4.1396 -0.853618 -0.931769 -1.22227 
1 177 3.90285 10.755 6.2094 -1.98358 0.849009 1.71047 
1 178 5.85428 9.56 5.51947 0.683329 1.00563 1.59822 
1 179 3.90285 11.95 4.1396 -1.64919 -0.207494 -0.863815 
1 180 5.85428 11.95 5.51947 1.61435 0.546893 -1.10731 
1 181 1.95143 8.365 7.58927 -1.62186 0.0171934 -0.990062 
1 182 1.95143 10.755 7.58927 1.56095 1.68412 0.466414 
1 183 0 7.17 8.2792 0.897788 -0.809479 -0.378239 
1 184 0 8.365 10.349 0.153162 1.17875 1.64199 
1 185 1.95143 8.365 11.7289 1.75447 0.218078 -1.35725 
1 186 1.95143 7.17 9.65907 1.65099 -1.25594 1.43424 
1 187 0 9.56 8.2792 1.52263 -1.04824 0.739312 
1 188 0 10.755 10.349 -0.462576 0.110678 -1.34337 
1 189 1.95143 10.755 11.7289 1.34105 -0.852932 1.63829 
1 190 1.95143 9.56 9.65907 -1.06764 0.335491 0.646916 
1 191 0 11.95 8.2792 -1.61367 -0.947616 1.6328 
1 192 1.95143 11.95 9.65907 1.68698 -1.93711 1.04912 
1 193 0 7.17 12.4188 0.940497 0.49682 0.490939 
1 194 0 9.56 12.4188 1.40134 -1.03508 0.305842 
1 195 0 11.95 12.4188 1.8955 -0.59781 -1.58482 
1 196 5.85428 8.365 7.58927 0.823017 1.32854 1.63845 
1 197 5.85428 10.755 7.58927 1.60739 -1.64861 0.591257 
1 198 3.90285 7.17 8.2792 1.10581 0.0592295 0.888535 
1 199 3.90285 8.365 10.349 1.76751 1.60624 1.71758 
1 200 5.85428 8.365 11.7289 1.42901 0.90605 -1.53889 
1 201 5.85428 7.17 9.65907 0.894029 -0.66174 0.667718 
1 202 3.90285 9.56 8.2792 -0.347039 -1.69663 1.15525 
1 203 3.90285 10.755 10.349 -0.598304 -0.943044 -0.701134 
1 204 5.85428 10.755 11.7289 0.432002 0.723549 -0.957719 
1 205 5.85428 9.56 9.65907 -1.13475 0.606981 -0.629459 
1 206 3.90285 11.95 8.2792 1.68391 1.7981 0.136879 
1 207 5.85428 11.95 9.65907 0.406865 1.80677 -0.583748 
1 208 3.90285 7.17 12.4188 -1.97207 0.344692 0.88948 
1 209 3.90285 9.56 12.4188 1.80841 0.310351 1.67784 
1 210 3.90285 11.95 12.4188 -1.38136 0.345615 0.573173 
1 211 0 8.365 14.4886 -1.98412 -0.241482 1.89172 
1 212 1.95143 8.365 15.8685 -1.17482 0.0848478 -0.0265334 
1 213 1.95143 7.17 13.7987 1.1668 -0.155801 1.02795 
1 214 0 10.755 14.4886 1.48168 -0.585372 1.61807 
1 215 1.95143 10.755 15.8685 -0.486139 -0.0602177 0.323086 
1 216 1.95143 9.56 13.7987 -1.22223 -1.01842 -0.830697 
1 217 1.95143 11.95 13.7987 0.0698583 -1.53539 -0.561708 
1 218 0 7.17 16.5584 0.312914 -1.71992 1.58647 
1 219 0 8.365 18.6282 -1.24872 1.03916 -0.990841 
1 220 1.95143 7.17 17.9383 0.336101 0.0555564 -1.4674 
1 221 0 9.56 16.5584 -1.08756 -1.95815 -0.325728 
1 222 0 10.755 18.6282 -0.0494738 -0.166571 -1.84822 
1 223 1.95143 9.56 17.9383 -0.480181 1.12468 -0.605166 
1 224 0 11.95 16.5584 -1.71944 -1.21555 -0.622962 
1 225 1.95143 11.95 17.9383 0.0371786 -0.544728 -0.117833 
1 226 3.90285 8.365 14.4886 -1.35325 1.79565 -1.46897 
1 227 5.85428 8.365 15.8685 0.251323 0.26213 -1.22761 
1 228 5.85428 7.17 13.7987 -0.673708 -1.51808 1.38368 
1 229 3.90285 10.755 14.4886 -1.22891 1.39568 1.83543 
1 230 5.85428 10.755 15.8685 -1.1425 1.0236 -1.17019 
1 231 5.85428 9.56 13.7987 -1.46212 0.871669 -1.42377 
1 232 5.85428 11.95 13.7987 -0.10934 -0.861046 -0.144086 
1 233 3.90285 7.17 16.5584 0.772822 0.874886 1.18111 
1 234 3.90285 8.365 18.6282 -1.40869 0.213808 -1.87249 
1 235 5.85428 7.17 17.9383 -0.724331 -1.2477 1.25291 
1 236 3.90285 9.56 16.5584 -1.95413 1.06891 0.297529 
1 237 3.90285 10.755 18.6282 0.716549 1.17811 -1.1799 
1 238 5.85428 9.56 17.9383 1.45741 -0.686203 1.20045 
1 239 3.90285 11.95 16.5584 -0.883559 -1.42107 0.949863 
1 240 5.85428 11.95 17.9383 -0.677023 -1.81007 -1.37144 
1 241 1.95143 8.365 20.0081 0.690856 0.837205 1.23409 
1 242 1.95143 10.755 20.0081 -1.6882 1.28462 -0.371525 
1 243 0 7.17 20.698 -1.7887 -1.36662 1.63482 
1 244 0 8.365 22.7678 0.00286605 0.711759 -1.18591 
1 245 1.95143 8.365 24.1477 -0.540454 1.49652 -1.62458 
1 246 1.95143 7.17 22.0779 1.53783 0.963738 -1.82014 
1 247 0 9.56 20.698 0.320398 1.35215 -1.35593 
1 248 0 10.755 22.7678 0.0401564 -1.95815 -0.285825 
1 249 1.95143 10.755 24.1477 1.61577 0.702944 1.08653 
1 250 1.95143 9.56 22.0779 0.328162 1.2016 1.7441 
1 251 0 11.95 20.698 -0.224079 -1.47772 -1.08037 
1 252 1.95143 11.95 22.0779 -0.158074 -0.511923 1.00388 
1 253 5.85428 8.365 20.0081 0.740341 1.23586 -0.464098 
1 254 5.85428 10.755 20.0081 -1.96385 -0.0733019 -1.86352 
1 255 3.90285 7.17 20.698 -0.306347 1.33973 -0.345206 
1 256 3.90285 8.365 22.7678 1.1538 -0.970718 1.29293 
1 257 5.85428 8.365 24.1477 1.5662 -1.15052 -0.189957 
1 258 5.85428 7.17 22.0779 1.73311 1.40008 0.528702 
1 259 3.90285 9.56 20.698 -1.25306 -0.704859 0.387522 
1 260 3.90285 10.755 22.7678 1.06365 -0.0526677 0.541707 
1 261 5.85428 10.755 24.1477 -0.39251 -1.93904 0.329283 
1 262 5.85428 9.56 22.0779 0.0122942 0.829618 0.408145 
1 263 3.90285 11.95 20.698 -0.678228 1.68614 -1.20903 
1 264 5.85428 11.95 22.0779 -1.08254 -0.790155 -0.188537 
1 265 0 13.145 2.0698 1.84492 0.284725 -1.49724 
1 266 1.95143 13.145 3.44967 0.119816 -1.10435 -0.105908 
1 267 0 14.34 0 1.14895 0.701192 -0.653763 
1 268 0 15.535 2.0698 0.928507 0.864336 -1.95974 
1 269 1.95143 15.535 3.44967 1.57953 1.22147 -0.710265 
1 270 1.95143 14.34 1.37987 1.35851 -0.408772 0.819859 
1 271 0 16.73 0 -0.535621 -0.395233 -1.23021 
1 272 0 17.925 2.0698 -0.893802 0.606187 1.86432 
1 273 1.95143 17.925 3.44967 1.52542 -1.74928 -1.0038 
1 274 1.95143 16.73 1.37987 0.249859 -0.594774 1.93113 
1 275 0 13.145 6.2094 0.133009 -1.0529 1.57708 
1 276 0 14.34 4.1396 -0.610517 -0.36417 -1.67533 
1 277 0 15.535 6.2094 -0.258011 -1.73891 -0.905542 
1 278 1.95143 14.34 5.51947 0.970405 0.426387 0.324926 
1 279 0 16.73 4.1396 -1.96904 -0.0858272 1.386 
1 280 0 17.925 6.2094 -1.81572 -0.251571 -1.41402 
1 281 1.95143 16.73 5.51947 1.46308 -0.545768 -1.75163 
1 282 3.90285 13.145 2.0698 -0.118235 0.063379 -0.624147 
1 283 5.85428 13.145 3.44967 -0.0888571 -1.00504 -1.51211 
1 284 3.90285 14.34 0 -0.418708 1.11867 1.28023 
1 285 3.90285 15.535 2.0698 1.90092 -0.560753 -0.259309 
1 286 5.85428 15.535 3.44967 -0.0496778 0.363458 -0.380883 
1 287 5.85428 14.34 1.37987 -0.729493 -0.921296 0.636519 
1 288 3.90285 16.73 0 1.77059 -1.97738 1.10339 
1 289 3.90285 17.925 2.0698 -1.29587 0.289221 -1.13678 
1 290 5.85428 17.925 3.44967 1.76286 -1.29213 -1.16263 
1 291 5.85428 16.73 1.37987 -1.06229 -0.814181 -0.224469 
1 292 3.90285 13.145 6.2094 -0.356142 -0.302773 1.0028 
1 293 3.90285 14.34 4.1396 -1.56683 -1.38406 1.43885 
1 294 3.90285 15.535 6.2094 -0.171421 0.790292 0.519434 
1 295 5.85428 14.34 5.51947 1.3301 1.10141 0.283052 
1 296 3.90285 16.73 4.1396 -1.12722 0.505816 1.25699 
1 297 3.90285 17.925 6.2094 -0.654408 -1.73938 -0.805122 
1 298 5.85428 16.73 5.51947 -1.56955 0.423155 1.42724 
1 299 1.95143 13.145 7.58927 -1.3271 1.90332 -0.957044 
1 300 1.95143 15.535 7.58927 -1.66683 0.224743 -0.191267 
1 301 1.95143 17.925 7.58927 -0.483188 -1.92237 -0.610186 
1 302 0 13.145 10.349 1.00462 1.49705 -0.652963 
1 303 1.95143 13.145 11.7289 -1.45594 1.80208 -0.268194 
1 304 0 14.34 8.2792 1.04304 1.91518 0.531303 
1 305 0 15.535 10.349 -1.07541 0.31091 -0.802856 
1 306 1.95143 15.535 11.7289 0.879675 -0.435228 -0.475028 
1 307 1.95143 14.34 9.65907 0.387885 -0.497459 -1.33142 
1 308 0 16.73 8.2792 0.280583 1.1793 -1.01099 
1 309 0 17.925 10.349 -1.84963 -0.250818 -0.637497 
1 310 1.95143 17.925 11.7289 1.17835 -0.0553066 -0.265292 
1 311 1.95143 16.73 9.65907 -1.64036 1.75902 0.438914 
1 312 0 14.34 12.4188 1.84503 -1.86245 0.9565 
1 313 0 16.73 12.4188 0.0262868 -1.51103 1.08985 
1 314 5.85428 13.145 7.58927 0.700636 -1.05016 0.072239 
1 315 5.85428 15.535 7.58927 -1.35573 -0.364607 -1.10483 
1 316 5.85428 17.925 7.58927 0.459365 1.42293 0.586501 
1 317 3.90285 13.145 10.349 0.334892 -0.483178 1.18024 
1 318 5.85428 13.145 11.7289 -0.179932 0.249427 -0.972507 
1 319 3.90285 14.34 8.2792 -0.290247 -1.21406 0.666376 
1 320 3.90285 15.535 10.349 0.854593 1.57427 -1.22216 
1 321 5.85428 15.535 11.7289 -0.101391 -1.86163 -1.09955 
1 322 5.85428 14.34 9.65907 -1.80476 1.82891 -0.66826 
1 323 3.90285 16.73 8.2792 -1.24713 0.0622565 0.302151 
1 324 3.90285 17.925 10.349 -0.770646 0.157822 -0.700164 
1 325 5.85428 17.925 11.7289 0.902397 1.44002 -1.16933 
1 326 5.85428 16.73 9.65907 1.06948 -0.934333 -0.769021 
1 327 3.90285 14.34 12.4188 -0.483625 -1.33812 1.70161 
1 328 3.90285 16.73 12.4188 -1.81584 1.56662 0.883394 
1 329 0 13.145 14.4886 -1.50302 -1.74526 -0.791143 
1 330 1.95143 13.145 15.8685 -0.175027 -0.428889 -0.813482 
1 331 0 15.535 14.4886 0.419841 -1.77065 -0.0257797 
1 332 1.95143 15.535 15.8685 -2.00007 0.83404 -0.496477 
1 333 1.95143 14.34 13.7987 0.117524 -0.0364701 -0.36361 
1 334 0 17.925 14.4886 0.595991 1.73451 0.162146 
1 335 1.95143 17.925 15.8685 1.503 1.53456 0.476798 
1 336 1.95143 16.73 13.7987 1.23352 0.849821 -0.486077 
1 337 0 13.145 18.6282 0.73707 1.69281 -0.0741817 
1 338 0 14.34 16.5584 -0.0319761 0.984453 1.9497 
1 339 0 15.535 18.6282 -0.379521 -1.34223 -0.0387278 
1 340 1.95143 14.34 17.9383 -1.89897 1.80277 -0.480988 
1 341 0 16.73 16.5584 -0.810021 -0.542499 1.72208 
1 342 0 17.925 18.6282 1.93028 1.91275 -0.831284 
1 343 1.95143 16.73 17.9383 -1.88525 -1.18231 -0.176673 
1 344 3.90285 13.145 14.4886 -0.639068 -1.23897 1.58013 
1 345 5.85428 13.145 15.8685 -0.884891 -0.0637906 -0.348009 
1 346 3.90285 15.535 14.4886 1.54199 -0.29081 0.174569 
1 347 5.85428 15.535 15.8685 0.494138 -0.0055452 0.820699 
1 348 5.85428 14.34 13.7987 1.70928 0.764937 1.91188 
1 349 3.90285 17.925 14.4886 1.31162 -0.773494 -1.23148 
1 350 5.85428 17.925 15.8685 1.50633 -1.90503 1.82993 
1 351 5.85428 16.73 13.7987 1.54871 1.68883 0.3242 
1 352 3.90285 13.145 18.6282 1.65884 0.041781 0.563776 
1 353 3.90285 14.34 16.5584 -1.58385 1.4816 1.01376 
1 354 3.90285 15.535 18.6282 0.475512 -0.333562 -1.86573 
1 355 5.85428 14.34 17.9383 -1.93184 -0.467131 1.69287 
1 356 3.90285 16.73 16.5584 1.7732 -1.67618 0.427669 
1 357 3.90285 17.925 18.6282 -1.08482 0.488145 1.15561 
1 358 5.85428 16.73 17.9383 1.57439 1.91854 1.51596 
1 359 1.95143 13.145 20.0081 1.37041 1.65217 1.73351 
1 360 1.95143 15.535 20.0081 -0.0632383 -1.91041 -1.43461 
1 361 1.95143 17.925 20.0081 -0.183794 -1.32265 0.367589 
1 362 0 13.145 22.7678 -1.43429 1.50747 0.279058 
1 363 1.95143 13.145 24.1477 -0.953294 -1.72738 -1.11297 
1 364 0 14.34 20.698 -1.72447 1.4161 0.596381 
1 365 0 15.535 22.7678 0.123258 1.31368 1.26044 
1 366 1.95143 15.535 24.1477 1.84036 -1.08912 -1.56102 
1 367 1.95143 14.34 22.0779 0.901026 -1.81241 -1.12617 
1 368 0 16.73 20.698 -1.90774 0.94724 -2.00111 
1 369 0 17.925 22.7678 -1.01357 -1.32481 -0.210564 
1 370 1.95143 17.925 24.1477 -0.207059 -0.43865 1.39866 
1 371 1.95143 16.73 22.0779 1.22793 1.89735 1.73956 
1 372 5.85428 13.145 20.0081 -1.27092 -0.0318936 1.34037 
1 373 5.85428 15.535 20.0081 -0.659728 -0.114268 -1.60069 
1 374 5.85428 17.925 20.0081 -0.771506 1.53957 1.44773 
1 375 3.90285 13.145 22.7678 -1.44726 1.1392 -1.90911 
1 376 5.85428 13.145 24.1477 1.35565 -0.871597 0.662524 
1 377 3.90285 14.34 20.698 -0.55586 -0.123266 1.5645 
1 378 3.90285 15.535 22.7678 1.7403 -0.480757 -1.67999 
1 379 5.85428 15.535 24.1477 0.561294 0.502046 1.2292 
1 380 5.85428 14.34 22.0779 -0.76873 0.690716 1.41951 
1 381 3.90285 16.73 20.698 -0.707089 -0.436257 -1.93006 
1 382 3.90285 17.925 22.7678 1.51617 1.10617 1.1414 
1 383 5.85428 17.925 24.1477 0.205467 1.4738 0.475699 
1 384 5.85428 16.73 22.0779 -1.39902 0.566034 -0.0362842 
1 385 7.80571 0 0 -0.414411 -1.88322 0.292385 
1 386 7.80571 1.195 2.0698 1.35683 -0.984766 -1.26521 
1 387 9.75713 1.195 3.44967 0.724839 1.95992 0.278682 
1 388 9.75713 0 1.37987 0.638337 0.911857 1.06485 
1 389 7.80571 2.39 0 0.196477 0.812828 -0.729697 
1 390 7.80571 3.585 2.0698 -0.642253 0.652714 0.0500261 
1 391 9.75713 3.585 3.44967 1.37345 1.34077 1.29104 
1 392 9.75713 2.39 1.37987 1.4685 -0.454432 1.37187 
1 393 7.80571 4.78 0 -1.70139 1.29541 -1.0276 
1 394 7.80571 5.975 2.0698 0.0146831 1.39345 0.0017054 
1 395 9.75713 5.975 3.44967 0.750006 1.38574 1.08197 
1 396 9.75713 4.78 1.37987 -1.09324 1.49209 -0.855965 
1 397 7.80571 0 4.1396 -1.04279 -1.6972 -0.583676 
1 398 7.80571 1.195 6.2094 -0.757119 1.87229 0.170272 
1 399 9.75713 0 5.51947 -0.473399 0.310281 0.50394 
1 400 7.80571 2.39 4.1396 -1.77061 1.76569 1.71265 
1 401 7.80571 3.585 6.2094 1.64431 1.4111 -0.354969 
1 402 9.75713 2.39 5.51947 -0.632447 -0.786482 -1.80202 
1 403 7.80571 4.78 4.1396 0.0694209 -0.970288 0.600708 
1 404 7.80571 5.975 6.2094 1.59315 0.543553 -1.82597 
1 405 9.75713 4.78 5.51947 1.40877 1.15912 0.313495 
1 406 11.7086 0 0 -0.110753 -0.864268 1.1294 
1 407 11.7086 1.195 2.0698 0.410394 1.75328 -0.995755 
1 408 13.66 1.195 3.44967 0.873794 -0.301476 -0.960465 
1 409 13.66 0 1.37987 0.209489 1.78014 -0.858579 
1 410 11.7086 2.39 0 -1.4291 1.61371 0.599399 
1 411 11.7086 3.585 2.0698 -0.607344 1.51324 -1.54487 
1 412 13.66 3.585 3.44967 -0.64216 -1.74039 1.92201 
1 413 13.66 2.39 1.37987 1.29953 1.86534 -1.89267 
1 414 11.7086 4.78 0 0.63216 0.0103518 -1.18029 
1 415 11.7086 5.975 2.0698 -1.036 1.68073 -1.12073 
1 416 13.66 5.975 3.44967 -1.60886 0.791649 -0.417216 
1 417 13.66 4.78 1.37987 -1.77176 -1.69769 -0.868691 
1 418 11.7086 0 4.1396 -1.16588 -0.054053 1.01017 
1 419 11.7086 1.195 6.2094 -0.453748 -1.94112 1.00286 
1 420 13.66 0 5.51947 -0.655614 1.74091 0.899447 
1 421 11.7086 2.39 4.1396 -0.893143 -0.199398 0.628644 
1 422 11.7086 3.585 6.2094 0.0485276 0.187196 -1.83125 
1 423 13.66 2.39 5.51947 -0.385166 -1.22366 1.55125 
1 424 11.7086 4.78 4.1396 0.742009 1.56567 0.832173 
1 425 11.7086 5.975 6.2094 0.576327 -0.18771 -0.872464 
1 426 13.66 4.78 5.51947 -1.24349 1.76037 -0.571162 
1 427 9.75713 1.195 7.58927 -0.245651 0.149608 -0.19846 
1 428 9.75713 3.585 7.58927 1.34005 -1.80676 -1.11939 
1 429 9.75713 5.975 7.58927 1.26002 -0.984631 1.00077 
1 430 7.80571 0 8.2792 -0.0456427 0.886639 0.790518 
1 431 7.80571 1.195 10.349 1.14706 0.491647 0.6305 
1 432 9.75713 1.195 11.7289 -0.420041 -1.48939 0.747245 
1 433 9.75713 0 9.65907 -1.72907 -0.800589 -1.38938 
1 434 7.80571 2.39 8.2792 -0.0566296 -1.67782 0.506615 
1 435 7.80571 3.585 10.349 -0.363911 -0.24448 -0.98698 
1 436 9.75713 3.585 11.7289 1.89334 -1.31067 -0.0658551 
1 437 9.75713 2.39 9.65907 1.3631 1.61379 1.95144 
1 438 7.80571 4.78 8.2792 1.13684 -0.973254 -1.74118 
1 439 7.80571 5.975 10.349 1.31735 0.626228 -1.74322 
1 440 9.75713 5.975 11.7289 -1.33248 -1.40265 1.79936 
1 441 9.75713 4.78 9.65907 -1.6869 -0.583852 -0.552187 
1 442 7.80571 0 12.4188 -1.98021 -1.8059 1.43703 
1 443 7.80571 2.39 12.4188 0.886097 0.619628 -1.83274 
1 444 7.80571 4.78 12.4188 -1.52598 0.303004 0.904501 
1 445 13.66 1.195 7.58927 0.93085 0.65479 -0.694898 
1 446 13.66 3.585 7.58927 -1.64613 -0.200158 -0.274036 
1 447 13.66 5.975 7.58927 1.83009 0.389987 -1.82655 
1 448 11.7086 0 8.2792 -0.558052 -1.34304 -1.75107 
1 449 11.7086 1.195 10.349 1.43214 -1.91138 -1.91145 
1 450 13.66 1.195 11.7289 1.63376 -1.76779 0.541545 
1 451 13.66 0 9.65907 0.83704 -0.504485 -0.66198 
1 452 11.7086 2.39 8.2792 1.37593 -0.495999 -0.5375 
1 453 11.7086 3.585 10.349 -0.567641 -0.203865 0.757562 
1 454 13.66 3.585 11.7289 1.45713 -1.43935 -1.41786 
1 455 13.66 2.39 9.65907 0.208147 -0.977766 1.58415 
1 456 11.7086 4.78 8.2792 -0.558006 -0.56854 -0.511384 
1 457 11.7086 5.975 10.349 -1.03226 1.23427 0.654354 
1 458 13.66 5.975 11.7289 0.686477 -1.49719 0.300299 
1 459 13.66 4.78 9.65907 -0.228405 1.03027 0.00477859 
1 460 11.7086 0 12.4188 0.940038 0.702204 0.524147 
1 461 11.7086 2.39 12.4188 1.36181 -0.302301 1.00874 
1 462 11.7086 4.78 12.4188 -0.732113 -1.40826 -1.46103 
1 463 7.80571 1.195 14.4886 -0.853236 1.52022 0.899698 
1 464 9.75713 1.195 15.8685 -0.62953 0.722325 -1.72859 
1 465 9.75713 0 13.7987 -0.912296 -1.45699 -1.05605 
1 466 7.80571 3.585 14.4886 0.93852 -1.06 1.04765 
1 467 9.75713 3.585 15.8685 0.0185631 -0.690205 1.23602 
1 468 9.75713 2.39 13.7987 -0.930696 -1.94385 -1.43241 
1 469 7.80571 5.975 14.4886 1.13855 0.0992119 -0.0794581 
1 470 9.75713 5.975 15.8685 -1.62435 1.70854 -0.896862 
1 471 9.75713 4.78 13.7987 0.385196 1.81469 1.83517 
1 472 7.80571 0 16.5584 -1.44694 -1.35014 1.63114 
1 473 7.80571 1.195 18.6282 1.47452 1.77474 -0.568878 
1 474 9.75713 0 17.9383 -1.45204 -0.0101213 -0.878171 
1 475 7.80571 2.39 16.5584 1.79222 1.3267 -1.56136 
1 476 7.80571 3.585 18.6282 -0.742173 -0.270752 0.815432 
1 477 9.75713 2.39 17.9383 0.278754 -1.86226 0.182433 
1 478 7.80571 4.78 16.5584 -1.92857 -0.87823 0.0200923 
1 479 7.80571 5.975 18.6282 1.01257 0.441592 -1.42405 
1 480 9.75713 4.78 17.9383 -0.775737 1.68973 -0.260124 
1 481 11.7086 1.195 14.4886 -1.87008 0.512669 1.63946 
1 482 13.66 1.195 15.8685 -1.25606 0.3661 0.481448 
1 483 13.66 0 13.7987 0.227365 1.36243 1.11725 
1 484 11.7086 3.585 14.4886 -1.95319 0.956583 0.640876 
1 485 13.66 3.585 15.8685 -0.2096 0.412116 1.95395 
1 486 13.66 2.39 13.7987 -0.278772 1.65035 -1.01128 
1 487 11.7086 5.975 14.4886 1.13206 1.74507 -0.440547 
1 488 13.66 5.975 15.8685 -1.99093 0.134748 -0.559091 
1 489 13.66 4.78 13.7987 0.752416 -1.66455 1.88523 
1 490 11.7086 0 16.5584 0.589791 0.453485 0.537939 
1 491 11.7086 1.195 18.6282 -0.383411 0.565241 -1.49235 
1 492 13.66 0 17.9383 -0.722854 -0.185146 -1.3206 
1 493 11.7086 2.39 16.5584 0.0423154 -1.29805 -1.83983 
1 494 11.7086 3.585 18.6282 1.88377 0.0963651 -0.424338 
1 495 13.66 2.39 17.9383 1.24407 0.0631625 -0.304045 
1 496 11.7086 4.78 16.5584 0.190706 -1.18176 1.13955 
1 497 11.7086 5.975 18.6282 0.701051 1.96658 1.41176 
1 498 13.66 4.78 17.9383 -0.281082 -1.54721 -1.32175 
1 499 9.75713 1.195 20.0081 0.474899 1.24165 -1.9691 
1 500 9.75713 3.585 20.0081 -1.45483 0.710096 -1.42353 
1 501 9.75713 5.975 20.0081 -0.0298165 1.65384 -1.73663 
1 502 7.80571 0 20.698 -1.37194 0.406686 1.73668 
1 503 7.80571 1.195 22.7678 1.73945 1.11318 0.0811966 
1 504 9.75713 1.195 24.1477 -1.2308 1.36803 0.18385 
1 505 9.75713 0 22.0779 -1.86224 1.57911 1.04772 
1 506 7.80571 2.39 20.698 1.20424 -0.362873 0.33064 
1 507 7.80571 3.585 22.7678 -0.933867 0.173744 1.68304 
1 508 9.75713 3.585 24.1477 -1.06039 -0.567489 1.31691 
1 509 9.75713 2.39 22.0779 0.876742 1.74024 1.41483 
1 510 7.80571 4.78 20.698 -0.110568 -1.71142 -2.00369 
1 511 7.80571 5.975 22.7678 -0.829016 0.859042 0.116145 
1 512 9.75713 5.975 24.1477 0.288419 -1.71166 1.82893 
1 513 9.75713 4.78 22.0779 0.442021 -1.09833 -1.92683 
1 514 13.66 1.195 20.0081 0.41887 1.68791 0.76759 
1 515 13.66 3.585 20.0081 -0.217245 -1.41324 1.8654 
1 516 13.66 5.975 20.0081 -0.16261 -1.54092 1.52248 
1 517 11.7086 0 20.698 0.107721 1.45654 -0.565503 
1 518 11.7086 1.195 22.7678 -0.132913 -1.1984 -1.45658 
1 519 13.66 1.195 24.1477 -1.26554 -0.585676 0.460346 
1 520 13.66 0 22.0779 1.83591 -0.749472 -1.26067 
1 521 11.7086 2.39 20.698 1.75808 1.52317 -0.996999 
1 522 11.7086 3.585 22.7678 -0.235239 0.970159 -0.776346 
1 523 13.66 3.585 24.1477 -0.87497 0.42357 0.481288 
1 524 13.66 2.39 22.0779 1.49267 -1.97462 0.00145665 
1 525 11.7086 4.78 20.698 0.527753 -1.10773 -1.57585 
1 526 11.7086 5.975 22.7678 1.04694 0.14465 -0.401988 
1 527 13.66 5.975 24.1477 0.818419 -0.735067 -0.631489 
1 528 13.66 4.78 22.0779 -0.765941 0.0717449 1.43241 
1 529 7.80571 7.17 0 -1.58402 -1.28343 -1.42492 
1 530 7.80571 8.365 2.0698 0.398714 -0.593338 -1.64078 
1 531 9.75713 8.365 3.44967 -1.49015 0.779999 1.70429 
1 532 9.75713 7.17 1.37987 -0.304738 0.674128 -0.272653 
1 533 7.80571 9.56 0 1.3228 1.17624 -0.927739 
1 534 7.80571 10.755 2.0698 0.00100355 1.07713 -0.112503 
1 535 9.75713 10.755 3.44967 1.15102 -0.18228 -0.652928 
1 536 9.75713 9.56 1.37987 -0.877648 -1.03084 0.242237 
1 537 7.80571 11.95 0 1.68971 0.463399 0.89617 
1 538 9.75713 11.95 1.37987 -0.541776 -0.92097 -1.80551 
1 539 7.80571 7.17 4.1396 0.790986 1.34524 1.21132 
1 540 7.80571 8.365 6.2094 -0.407187 0.781211 -1.66837 
1 541 9.75713 7.17 5.51947 1.79991 -0.109595 1.7376 
1 542 7.80571 9.56 4.1396 1.46184 -1.52862 -1.45613 
1 543 7.80571 10.755 6.2094 -1.59482 -0.69653 1.82328 
1 544 9.75713 9.56 5.51947 0.541503 0.383672 -1.07859 
1 545 7.80571 11.95 4.1396 -1.91025 -1.6883 -1.32506 
1 546 9.75713 11.95 5.51947 0.218759 -0.764418 0.882341 
1 547 11.7086 7.17 0 0.592222 1.73847 -0.640042 
1 548 11.7086 8.365 2.0698 1.93583 0.261361 1.68135 
1 549 13.66 8.365 3.44967 -1.86973 -1.63371 1.70931 
1 550 13.66 7.17 1.37987 1.04363 0.0710812 -1.80563 
1 551 11.7086 9.56 0 -1.151 0.620137 -1.19711 
1 552 11.7086 10.755 2.0698 1.30995 -0.995158 -1.74231 
1 553 13.66 10.755 3.44967 -1.75359 -1.2063 0.405127 
1 554 13.66 9.56 1.37987 0.0573613 -1.76899 0.220514 